ITEM: TIMESTEP
2499000
ITEM: NUMBER OF ATOMS
4500
ITEM: BOX BOUNDS pp pp pp
-1.2291055084396412e+00 3.6158320766317473e+01
-1.2291055084396412e+00 3.6158320766317473e+01
-1.2291055084396412e+00 3.6158320766317473e+01
ITEM: ATOMS id type xs ys zs
608 1 0.0505923 0.0325417 0.0922803
723 1 0.0792293 0.101715 0.127442
1156 1 0.00867054 0.126625 0.186666
1716 2 0.0191904 0.0815749 0.0153986
1788 2 0.152708 0.129285 0.10974
2339 2 0.123584 0.105156 0.0348057
2749 2 0.0124601 0.0313846 0.0723209
2788 2 0.0574894 0.0659249 0.12095
3302 2 0.0795685 0.128547 0.0924565
3548 2 0.10008 0.112921 0.162279
3821 2 0.0321853 0.159446 0.171561
3957 3 0.144248 0.123543 0.0387844
4418 3 0.101149 0.0293588 0.0478534
2653 2 0.0838519 0.0390305 0.0651735
4153 3 0.104877 0.104591 0.0528253
2007 2 0.0293684 0.0895489 0.196876
4456 3 0.079727 0.0162979 0.193574
685 1 0.158893 0.165454 0.0874076
1909 2 0.00186983 0.14727 0.0352279
602 1 0.115794 0.135296 0.197196
1883 2 0.165239 0.0726392 0.161647
3681 2 0.401471 0.499459 0.00320571
3566 2 0.165222 0.00082435 0.173634
3786 2 0.139915 0.0425492 0.0135722
3493 2 0.331291 0.00261751 0.19593
511 1 0.176542 0.111574 0.142124
749 1 0.173976 0.0397249 0.190732
1829 2 0.222452 0.097328 0.191217
2437 2 0.239274 0.0384999 0.134285
2777 2 0.191635 0.151271 0.156629
2841 2 0.22923 0.10871 0.0254205
3284 2 0.213552 0.096657 0.125473
3734 2 0.184021 0.0218822 0.0927717
182 1 0.227777 0.0225864 0.0955254
623 1 0.243781 0.0772358 0.153982
2976 2 0.244348 0.0493053 0.0657968
243 1 0.250702 0.0720067 0.0302718
170 1 0.295894 0.00993181 0.170667
1849 2 0.277677 0.10163 0.140741
103 1 0.28568 0.141279 0.125825
1318 2 0.316648 0.0207206 0.133143
1819 2 0.294279 0.0820667 0.0330614
2266 2 0.285157 0.0503987 0.187441
3771 2 0.295124 0.133412 0.0854925
4169 3 0.317065 0.0698376 0.0386111
4409 3 0.29699 0.11844 0.0640651
300 1 0.213817 0.149386 0.0289383
2377 2 0.319064 0.157492 0.14824
2330 2 0.175862 0.152862 0.0497881
1283 2 0.453344 0.00158482 0.132679
1580 2 0.496485 0.149236 0.025169
4239 3 0.342812 0.0838282 0.152784
2900 2 0.474079 0.0770016 0.0102007
121 1 0.474653 0.0035772 0.0946366
67 1 0.342457 0.0264127 0.0973745
267 1 0.423991 0.0065894 0.16281
303 1 0.345385 0.157914 0.0207696
395 1 0.433356 0.145625 0.110164
1140 1 0.383315 0.0959219 0.0650479
3076 2 0.381912 0.0108801 0.103404
1474 2 0.406217 0.0814873 0.0312109
1709 2 0.411113 0.112585 0.0942957
2438 2 0.361613 0.130874 0.0517856
2615 2 0.347075 0.0800825 0.178518
2930 2 0.354496 0.0665187 0.0832414
3120 2 0.410017 0.0475959 0.169715
3408 2 0.48561 0.0466339 0.0896792
3873 2 0.446086 0.144564 0.152209
2236 2 0.36877 0.0199465 0.0159237
2456 2 0.467038 0.158519 0.0859189
3946 3 0.487082 0.0228447 0.189619
4457 3 0.390883 0.0150314 0.0290784
375 1 0.387898 0.0717738 0.196208
987 1 0.07778 0.1714 0.0783543
238 1 0.0356764 0.196046 0.146728
1255 2 0.0512553 0.186919 0.108061
2049 2 0.0717638 0.183092 0.037162
2065 2 0.119966 0.182426 0.0832826
2072 2 0.141177 0.228919 0.141475
2530 2 0.114869 0.175083 0.17959
2694 2 0.066938 0.221842 0.161539
274 1 0.109969 0.217703 0.169943
4285 3 0.126491 0.235091 0.0751121
2779 2 0.132724 0.281859 0.0115051
199 1 0.134847 0.318705 0.167904
520 1 0.138299 0.295527 0.0536216
678 1 0.0549329 0.314619 0.0686845
1600 2 0.139549 0.258437 0.0796064
1730 2 0.0476341 0.318779 0.110951
2642 2 0.0372039 0.280527 0.0490072
3071 2 0.0937022 0.307434 0.16091
3093 2 0.0163047 0.305777 0.174703
3300 2 0.0986493 0.311563 0.0627927
3478 2 0.158324 0.291606 0.141271
336 1 0.052201 0.320353 0.15401
216 1 0.00550561 0.263311 0.0227789
622 1 0.166972 0.256463 0.117299
4014 3 0.203436 0.299684 0.00797353
3058 2 0.24431 0.168427 0.0534982
3863 2 0.168769 0.320928 0.0689739
2720 2 0.252517 0.169218 0.135491
38 1 0.21531 0.262545 0.191269
1852 2 0.211198 0.228789 0.161496
2524 2 0.189175 0.190706 0.105142
961 1 0.21295 0.187601 0.142139
2249 2 0.211248 0.307569 0.190803
838 1 0.277252 0.196122 0.0553395
2931 2 0.309921 0.181589 0.0313033
2397 2 0.297022 0.208897 0.0928216
2274 2 0.208717 0.279882 0.0255125
1011 1 0.232242 0.267337 0.0582372
1954 2 0.20436 0.261181 0.0928697
4062 3 0.281682 0.308035 0.0493716
159 1 0.313737 0.242945 0.113568
1135 1 0.271256 0.310042 0.114012
2560 2 0.256493 0.232865 0.0467845
2612 2 0.265781 0.296851 0.0698002
3491 2 0.282014 0.269709 0.127084
2974 2 0.23163 0.326061 0.116333
963 1 0.330965 0.18948 0.173909
1380 2 0.330291 0.22515 0.150476
3218 2 0.308879 0.331117 0.12624
1612 2 0.496548 0.168336 0.193932
2851 2 0.338651 0.317951 0.18834
717 1 0.454625 0.172748 0.184191
2527 2 0.339391 0.275641 0.0156061
4282 3 0.482866 0.225539 0.0906612
1964 2 0.385518 0.318232 0.142342
337 1 0.422631 0.221494 0.125339
2492 2 0.407913 0.182333 0.113935
3475 2 0.438274 0.241825 0.0907144
4458 3 0.466261 0.234183 0.169441
2344 2 0.451969 0.212735 0.161475
2141 2 0.467378 0.263272 0.0293473
3687 2 0.399769 0.251459 0.144615
97 1 0.442744 0.276644 0.0625419
917 1 0.357575 0.287034 0.0533288
1027 1 0.484028 0.313328 0.128036
1154 1 0.410302 0.290194 0.161855
3617 2 0.339887 0.263022 0.0861983
2259 2 0.464114 0.305244 0.0887291
2491 2 0.454036 0.293756 0.154326
2546 2 0.401697 0.286014 0.0528497
2598 2 0.344112 0.327944 0.0597716
34 1 0.494589 0.243488 0.00218052
4276 3 0.105487 0.381076 0.198086
4050 3 0.471691 0.491226 0.063471
29 1 0.0794096 0.495343 0.145598
1507 2 0.0477293 0.350549 0.0456959
3866 2 0.052834 0.36005 0.173137
1895 2 0.0317076 0.481933 0.0710335
434 1 0.14583 0.394592 0.126731
584 1 0.0605362 0.389241 0.0296159
2929 2 0.0985885 0.39065 0.00921659
794 1 0.0651789 0.417454 0.108859
1046 1 0.0273513 0.394364 0.17578
1530 2 0.0726564 0.455716 0.128019
1764 2 0.10408 0.398473 0.115445
1937 2 0.141119 0.453328 0.041898
2465 2 0.14053 0.359705 0.155534
2638 2 0.0325185 0.402886 0.132585
2717 2 0.158584 0.438067 0.126674
3249 2 0.104421 0.491039 0.181161
3436 2 0.0626367 0.41415 0.0651032
4423 3 0.124805 0.432999 0.0391801
4380 3 0.14233 0.479458 0.0453766
3205 2 0.0406651 0.432559 0.1956
3972 3 0.151686 0.0196537 0.0168464
3855 2 0.293563 0.476673 0.118222
3134 2 0.210654 0.480551 0.0842986
3906 3 0.179954 0.418727 0.025995
369 1 0.192963 0.46657 0.122816
797 1 0.200897 0.344373 0.0900052
860 1 0.251474 0.412955 0.154834
1500 2 0.179099 0.377823 0.105848
2156 2 0.221875 0.444012 0.144457
2462 2 0.233294 0.375807 0.168257
3874 2 0.224167 0.357223 0.056361
1311 2 0.200811 0.405494 0.0144692
2989 2 0.277237 0.426222 0.187039
1180 1 0.229568 0.374228 0.0181442
85 1 0.301496 0.439963 0.0971475
1798 2 0.296798 0.436898 0.054362
1752 2 0.274493 0.410873 0.117804
2204 2 0.269259 0.389675 0.0140411
441 1 0.302923 0.416695 0.0173233
679 1 0.439641 0.414948 0.065865
1369 2 0.454507 0.495428 0.132089
470 1 0.470502 0.396116 0.139887
1674 2 0.357889 0.380344 0.153698
1972 2 0.34068 0.444608 0.175014
3323 2 0.427658 0.454457 0.0800457
1645 2 0.363017 0.17558 0.19821
891 1 0.41806 0.476644 0.117224
71 1 0.383271 0.390533 0.0091238
3996 3 0.341632 0.35382 0.0552796
3182 2 0.341611 0.428171 0.106994
1867 2 0.456062 0.413893 0.176272
198 1 0.346296 0.337952 0.149829
3062 2 0.445434 0.394917 0.105432
1724 2 0.341336 0.393541 0.0198208
3784 2 0.409292 0.394495 0.0430014
801 1 0.362946 0.422974 0.14556
2226 2 0.478483 0.417902 0.048223
3240 2 0.483585 0.354025 0.142191
3308 2 0.400849 0.443986 0.141432
472 1 0.214516 0.351963 0.198941
3361 2 0.377515 0.180801 0.00297038
2239 2 0.0486954 0.0168737 0.00306557
4476 3 0.493349 0.471919 0.170387
479 1 0.161468 0.138771 0.364681
612 1 0.0672782 0.12505 0.267311
697 1 0.159376 0.0375213 0.27042
785 1 0.0428219 0.127173 0.378555
974 1 0.128514 0.0647037 0.342068
1302 2 0.0506448 0.0892399 0.360818
1390 2 0.0948729 0.0388778 0.328014
1779 2 0.0362059 0.153516 0.277818
3140 2 0.157721 0.128224 0.20924
2193 2 0.132454 0.106183 0.355663
2455 2 0.0890273 0.134443 0.230758
2680 2 0.0959414 0.125948 0.299198
2809 2 0.155457 0.0607405 0.307454
2877 2 0.124539 0.0115958 0.275978
3395 2 0.053439 0.0849719 0.258297
1303 2 0.0189246 0.0254176 0.237757
4039 3 0.110789 0.124383 0.321
4300 3 0.0552466 0.0673376 0.347895
3718 2 0.0222374 0.149964 0.346749
1841 2 0.140882 0.0418677 0.378776
2817 2 0.157335 0.0508472 0.228892
2165 2 0.0789658 0.151459 0.384482
756 1 0.0437263 0.0587441 0.22512
1529 2 0.0768442 0.0398771 0.205668
1485 2 0.178712 0.145482 0.32635
446 1 0.201337 0.126646 0.21726
743 1 0.210974 0.136334 0.300369
1450 2 0.199776 0.122007 0.260659
2641 2 0.200895 0.0214694 0.271865
3175 2 0.206817 0.0194915 0.349184
4083 3 0.231115 0.0278962 0.342984
909 1 0.233515 0.0157301 0.244617
1325 2 0.237709 0.105914 0.316532
4171 3 0.194384 0.0336149 0.330392
188 1 0.309099 0.0829091 0.204377
289 1 0.328311 0.144334 0.36264
624 1 0.32569 0.120469 0.276044
967 1 0.272912 0.0882401 0.334723
983 1 0.29486 0.0198064 0.295871
1246 2 0.32067 0.0866504 0.246298
1366 2 0.271709 0.0316191 0.260862
1783 2 0.287106 0.15432 0.358957
1900 2 0.294012 0.14951 0.263505
2567 2 0.268534 0.091415 0.378528
2886 2 0.308315 0.102652 0.313511
3589 2 0.274879 0.0454936 0.326403
2088 2 0.216145 0.0305899 0.207109
8 1 0.276604 0.15671 0.223284
1809 2 0.233655 0.157158 0.217766
1719 2 0.291737 0.122287 0.203692
3662 2 0.194427 0.122104 0.386504
4080 3 0.273404 0.175068 0.366451
2074 2 0.332446 0.0187775 0.373758
2110 2 0.338039 0.0220516 0.307742
1 1 0.388152 0.150834 0.223125
1461 2 0.471282 0.0730033 0.29915
326 1 0.480592 0.051733 0.261825
892 1 0.432422 0.156535 0.346754
895 1 0.363157 0.0180736 0.342961
1016 1 0.431843 0.0717217 0.359505
2368 2 0.381654 0.051171 0.234071
2499 2 0.446673 0.022401 0.261625
2575 2 0.362822 0.1393 0.258249
3047 2 0.436412 0.114647 0.341551
3822 2 0.348803 0.10711 0.377037
3908 3 0.369 0.0372902 0.252542
4204 3 0.463059 0.0964516 0.307966
2327 2 0.467422 0.0503767 0.369848
1942 2 0.397773 0.0446961 0.345574
1564 2 0.349633 0.158342 0.324951
970 1 0.49041 0.0120826 0.364522
3390 2 0.41365 0.0888993 0.394828
2217 2 0.492053 0.119666 0.395925
3037 2 0.39848 0.111746 0.207256
3929 3 0.100075 0.166174 0.389778
1335 2 0.123157 0.236197 0.207176
47 1 0.0222597 0.176797 0.312321
1751 2 0.151544 0.173652 0.386343
1778 2 0.0537295 0.205868 0.318787
2776 2 0.152252 0.201225 0.2625
2947 2 0.0682707 0.23529 0.382201
112 1 0.150334 0.237977 0.241749
512 1 0.0763635 0.236535 0.339194
1692 2 0.11877 0.237489 0.332867
1220 2 0.0113848 0.315603 0.300292
531 1 0.13904 0.315153 0.254149
1049 1 0.026211 0.294888 0.334409
1185 1 0.152024 0.26359 0.343313
2476 2 0.0634041 0.275342 0.324659
2775 2 0.0330481 0.324073 0.365796
3357 2 0.140977 0.318031 0.210861
3409 2 0.137363 0.305075 0.346494
3858 2 0.136629 0.272579 0.263081
4098 3 0.0866856 0.32018 0.288799
4308 3 0.150031 0.181945 0.279779
1856 2 0.165315 0.244024 0.379256
519 1 0.393591 0.486939 0.387395
2992 2 0.467606 0.484296 0.284212
1635 2 0.234117 0.173294 0.300122
437 1 0.263503 0.204151 0.300396
3598 2 0.187943 0.249731 0.22269
3765 2 0.271788 0.222676 0.336946
2228 2 0.275746 0.221129 0.263353
3708 2 0.295398 0.193059 0.205935
763 1 0.288144 0.232846 0.223953
3652 2 0.319161 0.265031 0.366746
872 1 0.280222 0.247979 0.371752
1901 2 0.173634 0.326783 0.278105
2819 2 0.187174 0.273181 0.320793
324 1 0.204535 0.310326 0.307001
2945 2 0.240503 0.305751 0.286154
1211 2 0.292458 0.3119 0.238534
2690 2 0.325427 0.253999 0.22201
836 1 0.331514 0.29761 0.225391
3363 2 0.249951 0.277756 0.37768
3704 2 0.323403 0.32666 0.337456
1934 2 0.256039 0.254441 0.204491
982 1 0.264508 0.333252 0.26215
4216 3 0.226022 0.287449 0.378155
1741 2 0.427918 0.170638 0.217978
2535 2 0.408259 0.172276 0.380376
4136 3 0.485863 0.172416 0.376084
1826 2 0.415194 0.17401 0.310584
1452 2 0.412208 0.285242 0.205714
4427 3 0.375819 0.244416 0.338212
825 1 0.345264 0.299584 0.363237
3455 2 0.372919 0.217774 0.34273
769 1 0.473667 0.223131 0.339175
646 1 0.373913 0.189722 0.307284
3084 2 0.440909 0.249474 0.344083
4015 3 0.354229 0.226069 0.254203
1605 2 0.491996 0.21126 0.301256
2568 2 0.470449 0.180172 0.355521
1985 2 0.429874 0.237393 0.255439
2443 2 0.357109 0.210526 0.274959
4278 3 0.435971 0.212466 0.258309
2211 2 0.479625 0.282878 0.237403
143 1 0.436719 0.276379 0.241225
696 1 0.43044 0.289243 0.361208
716 1 0.385738 0.329701 0.274735
1917 2 0.387247 0.292044 0.355622
2940 2 0.42205 0.307013 0.270342
3043 2 0.453742 0.319818 0.342179
1664 2 0.355321 0.302463 0.260817
2894 2 0.342569 0.175557 0.389051
185 1 0.377126 0.201402 0.38624
2053 2 0.496453 0.32813 0.285717
544 1 0.092329 0.00129522 0.301639
4385 3 0.0648274 0.494414 0.244688
2810 2 0.102529 0.335866 0.270711
2928 2 0.00665246 0.443301 0.385193
1913 2 0.143847 0.445512 0.220163
402 1 0.126211 0.485856 0.21806
812 1 0.138733 0.34574 0.364347
529 1 0.0537257 0.360705 0.374714
560 1 0.0203004 0.475976 0.358899
611 1 0.0840764 0.37477 0.257327
999 1 0.0664009 0.421862 0.323483
1091 1 0.153084 0.405741 0.231917
1404 2 0.0380679 0.454702 0.323719
1524 2 0.15673 0.405126 0.274838
1527 2 0.155107 0.376238 0.336063
1731 2 0.0468027 0.387514 0.3401
2091 2 0.110704 0.386341 0.223798
2602 2 0.0444912 0.369973 0.244213
2757 2 0.0923742 0.43346 0.355679
2953 2 0.0849383 0.406221 0.287995
2995 2 0.156923 0.440307 0.346902
3850 2 0.0958979 0.352541 0.371334
84 1 0.128346 0.438388 0.379768
771 1 0.017562 0.461752 0.216943
3127 2 0.038842 0.493869 0.236556
2118 2 0.101878 0.494046 0.25505
3176 2 0.166307 0.340069 0.396804
4019 3 0.00285516 0.44526 0.2767
1575 2 0.0547595 0.498183 0.376535
1247 2 0.000918954 0.436342 0.251572
4210 3 0.218375 0.119807 0.397155
3807 2 0.213146 0.336733 0.340332
4110 3 0.202957 0.495489 0.357994
457 1 0.171047 0.413663 0.314994
630 1 0.231609 0.361875 0.371499
1289 2 0.179959 0.377417 0.212469
2246 2 0.244726 0.467383 0.361749
52 1 0.227685 0.465635 0.271863
2701 2 0.205941 0.440814 0.301911
3200 2 0.239132 0.352843 0.234685
3425 2 0.283995 0.359492 0.290296
2857 2 0.216308 0.402978 0.375989
4353 3 0.246601 0.430835 0.22053
1371 2 0.27067 0.369908 0.356288
1726 2 0.267385 0.478531 0.283681
1624 2 0.311738 0.476292 0.232088
4322 3 0.256483 0.46853 0.339072
173 1 0.312328 0.441363 0.206892
1146 1 0.303017 0.364611 0.328121
3382 2 0.231789 0.440042 0.23829
1949 2 0.316089 0.464334 0.36027
4024 3 0.313676 0.438623 0.357259
384 1 0.228737 0.442141 0.391703
1454 2 0.328226 0.399717 0.327285
1643 2 0.33117 0.412501 0.2358
628 1 0.372871 0.405127 0.246777
3275 2 0.396419 0.425369 0.217025
1682 2 0.444955 0.378074 0.30315
503 1 0.40561 0.391617 0.317424
3915 3 0.459847 0.401382 0.2663
1571 2 0.45472 0.415395 0.24518
3686 2 0.395424 0.487546 0.34252
3921 3 0.341465 0.420499 0.318072
3310 2 0.38666 0.416538 0.287252
1449 2 0.381796 0.362034 0.245225
1888 2 0.441194 0.4778 0.220935
3126 2 0.407067 0.397892 0.360135
1109 1 0.439274 0.436494 0.209561
1119 1 0.4923 0.458881 0.309101
268 1 0.474384 0.347941 0.317627
1522 2 0.38548 0.351847 0.311565
3046 2 0.470859 0.446771 0.343651
4109 3 0.468801 0.440968 0.368877
132 1 0.132845 0.0191707 0.497035
201 1 0.0940645 0.0906723 0.455999
288 1 0.051985 0.0368216 0.508712
866 1 0.130147 0.0766918 0.562394
1033 1 0.116467 0.027023 0.411801
1373 2 0.0819379 0.13193 0.453866
2057 2 0.0513896 0.0471794 0.550441
2251 2 0.13674 0.0958936 0.46671
2751 2 0.134464 0.020649 0.452898
3145 2 0.0932567 0.0629535 0.422428
3222 2 0.0679414 0.0689419 0.485493
3360 2 0.131368 0.0524122 0.525761
3854 2 0.0909994 0.0966288 0.564763
4094 3 0.152305 0.114863 0.458223
2400 2 0.0184733 0.0154591 0.494274
166 1 0.0540568 0.0758633 0.584404
3714 2 0.0192094 0.12702 0.41469
3435 2 0.0253479 0.157435 0.484269
3764 2 0.0870175 0.0047123 0.497732
1755 2 0.0121654 0.0834601 0.594457
1707 2 0.162271 0.109342 0.576727
3940 3 0.164909 0.127496 0.558101
2135 2 0.13271 0.0500939 0.597125
2818 2 0.436353 0.40526 0.427026
604 1 0.0686943 0.168921 0.47182
3791 2 0.20715 0.149092 0.50199
4251 3 0.179215 0.078504 0.489034
768 1 0.239159 0.135203 0.476095
1438 2 0.238599 0.10623 0.442296
2380 2 0.197931 0.0740185 0.506283
3630 2 0.239976 0.084814 0.563086
786 1 0.229258 0.0584458 0.529928
2916 2 0.268672 0.117401 0.501127
296 1 0.274936 0.0908068 0.420912
804 1 0.27522 0.10821 0.579079
715 1 0.301593 0.0847437 0.510397
2786 2 0.266729 0.0543437 0.507563
3019 2 0.289051 0.0503408 0.424949
3262 2 0.277961 0.149007 0.566319
3505 2 0.305566 0.117746 0.434633
3244 2 0.305226 0.0893922 0.5543
1717 2 0.221297 0.0200919 0.545046
530 1 0.307834 0.0131022 0.409089
4151 3 0.207454 0.0778873 0.431927
2591 2 0.197435 0.0546695 0.424071
4445 3 0.205215 0.0331338 0.437089
4495 3 0.25412 0.0164371 0.48208
3964 3 0.183208 0.0544963 0.401704
919 1 0.498156 0.358245 0.564138
2398 2 0.332338 0.12098 0.498952
572 1 0.334875 0.13903 0.458618
2893 2 0.333388 0.0546544 0.504614
3967 3 0.350968 0.125614 0.516747
629 1 0.495895 0.0472258 0.479655
208 1 0.378005 0.0151623 0.442872
1193 1 0.48281 0.120231 0.439327
59 1 0.469345 0.0855312 0.549011
277 1 0.375038 0.0486599 0.513043
566 1 0.42048 0.119977 0.495122
578 1 0.374381 0.092647 0.410058
1628 2 0.371142 0.121814 0.441346
1700 2 0.440509 0.0685966 0.575328
2407 2 0.397382 0.0839917 0.499807
2784 2 0.447642 0.11873 0.52994
3072 2 0.395548 0.153597 0.50542
3169 2 0.367945 0.0546429 0.428439
3273 2 0.444871 0.125091 0.460029
1663 2 0.478635 0.016136 0.456933
3476 2 0.471979 0.0634848 0.511735
943 1 0.400193 0.0673276 0.590945
3808 2 0.380503 0.0485894 0.55642
1399 2 0.388308 0.0183033 0.48464
2321 2 0.46633 0.150171 0.592647
3124 2 0.383909 0.1077 0.595131
2123 2 0.497701 0.0809694 0.450385
4332 3 0.453881 0.00614734 0.516269
2549 2 0.372333 0.377444 0.420172
2597 2 0.091815 0.173387 0.506828
845 1 0.00702477 0.172945 0.522773
2616 2 0.0341695 0.175871 0.556414
857 1 0.0476659 0.234238 0.421091
2055 2 0.0636451 0.20311 0.44766
2376 2 0.0525751 0.240613 0.548555
2512 2 0.144408 0.220543 0.442575
3968 3 0.100962 0.177683 0.531602
3599 2 0.0998511 0.194475 0.575593
74 1 0.142013 0.200828 0.587979
1030 1 0.058378 0.206919 0.576321
1138 1 0.15387 0.241296 0.479513
1739 2 0.155275 0.309501 0.568686
2691 2 0.0246786 0.306057 0.564315
298 1 0.0969484 0.317196 0.477931
377 1 0.0564562 0.284408 0.543746
1647 2 0.144641 0.244453 0.592854
853 1 0.129063 0.283391 0.590417
1589 2 0.120291 0.246751 0.505755
2058 2 0.0657601 0.297726 0.503224
2912 2 0.0397645 0.271926 0.439189
3447 2 0.109324 0.291082 0.446137
3733 2 0.0931029 0.288646 0.566375
4088 3 0.0342199 0.284901 0.461068
4383 3 0.0957239 0.244756 0.512209
4197 3 0.122614 0.284944 0.424873
2401 2 0.0074348 0.218782 0.412904
1043 1 0.166084 0.210147 0.406961
2871 2 0.168926 0.18191 0.559214
3187 2 0.253187 0.172001 0.457606
2298 2 0.207482 0.205612 0.421503
488 1 0.198236 0.184414 0.526346
1084 1 0.247848 0.210784 0.438659
1442 2 0.235744 0.198093 0.543787
4263 3 0.194411 0.292139 0.485769
3534 2 0.181613 0.213636 0.500503
1540 2 0.230944 0.291919 0.519214
122 1 0.277673 0.19076 0.553661
2639 2 0.295697 0.211002 0.587407
2134 2 0.302064 0.199029 0.518544
3167 2 0.273272 0.220007 0.404599
3672 2 0.254149 0.241489 0.469263
3755 2 0.178799 0.275855 0.472282
2963 2 0.227949 0.291915 0.587241
3025 2 0.267852 0.312221 0.468325
480 1 0.32255 0.286284 0.553023
346 1 0.262357 0.276819 0.49336
1813 2 0.294782 0.272759 0.523381
3383 2 0.311378 0.274571 0.593904
661 1 0.226862 0.31938 0.553403
3482 2 0.325015 0.329359 0.548923
120 1 0.331325 0.214233 0.490236
3688 2 0.334145 0.180895 0.462629
3494 2 0.333675 0.251456 0.468478
4076 3 0.336174 0.276797 0.462742
2073 2 0.374652 0.170224 0.571689
2067 2 0.443176 0.23493 0.448972
140 1 0.474363 0.179408 0.561045
1009 1 0.393193 0.184964 0.535319
1493 2 0.377561 0.233652 0.412627
1846 2 0.481269 0.217407 0.584368
2911 2 0.368343 0.214715 0.515744
3861 2 0.435366 0.191399 0.544173
3934 3 0.42663 0.215083 0.446549
4000 3 0.37093 0.250633 0.53875
4412 3 0.365099 0.247551 0.431078
843 1 0.3977 0.300203 0.571952
211 1 0.456028 0.275997 0.443059
2314 2 0.446073 0.301383 0.477125
2338 2 0.358986 0.321236 0.468698
3375 2 0.365672 0.273009 0.552253
3421 2 0.408214 0.321528 0.535366
1463 2 0.428587 0.272663 0.58275
4350 3 0.467321 0.225989 0.488219
3852 2 0.487291 0.228831 0.505257
1316 2 0.438128 0.287751 0.404331
4121 3 0.362285 0.322825 0.494726
1850 2 0.345386 0.318483 0.402463
203 1 0.440652 0.331686 0.50833
3778 2 0.498557 0.277202 0.437684
3228 2 0.131151 0.330338 0.501105
3336 2 0.0346655 0.383714 0.406219
3049 2 0.132776 0.473832 0.405267
3537 2 0.0666139 0.488522 0.560838
3017 2 0.0864589 0.420897 0.575349
1541 2 0.157544 0.481494 0.475124
476 1 0.0229675 0.38422 0.51181
409 1 0.0987755 0.462605 0.573521
691 1 0.152233 0.340788 0.53845
818 1 0.0772129 0.439266 0.471397
1273 2 0.0463972 0.412562 0.487539
1598 2 0.0705804 0.441259 0.426603
2268 2 0.0523473 0.370976 0.541209
2588 2 0.122879 0.367108 0.555711
2866 2 0.0751258 0.349803 0.46071
3350 2 0.114234 0.4225 0.483233
3875 2 0.0141672 0.438411 0.581334
4122 3 0.149149 0.388567 0.422321
4155 3 0.135698 0.408956 0.491994
4277 3 0.0315924 0.455986 0.574195
4294 3 0.0614802 0.420967 0.413131
4338 3 0.0703076 0.463635 0.412551
4439 3 0.0576139 0.363254 0.44756
1687 2 0.07443 0.482643 0.479563
2323 2 0.130645 0.469674 0.545227
798 1 0.0837009 0.377246 0.571886
1184 1 0.163358 0.469732 0.517301
4131 3 0.162282 0.351326 0.473487
1734 2 0.00212454 0.349124 0.494731
2313 2 0.138235 0.406654 0.405986
1179 1 0.215765 0.406538 0.599536
994 1 0.16585 0.485383 0.432566
4422 3 0.181553 0.34336 0.418175
4307 3 0.200701 0.380725 0.46828
1879 2 0.305695 0.360227 0.437887
766 1 0.265153 0.350974 0.447852
1216 2 0.177816 0.370446 0.463801
1904 2 0.197073 0.461582 0.414434
2478 2 0.239123 0.347206 0.412188
3553 2 0.184955 0.432326 0.519174
3757 2 0.195122 0.345891 0.536289
1468 2 0.257188 0.432074 0.422474
1573 2 0.247054 0.464968 0.48214
2909 2 0.251308 0.38699 0.471431
4341 3 0.207211 0.421237 0.528518
4483 3 0.258544 0.409138 0.549976
128 1 0.263352 0.428937 0.464319
468 1 0.301885 0.36022 0.567942
1544 2 0.304221 0.427748 0.479306
1549 2 0.262042 0.344459 0.564284
1807 2 0.236348 0.411449 0.56241
1261 2 0.307134 0.394747 0.543396
2288 2 0.434191 0.369463 0.48717
595 1 0.399518 0.405572 0.402082
1907 2 0.481351 0.460977 0.525337
2863 2 0.329918 0.497487 0.550609
4379 3 0.384246 0.376003 0.491557
656 1 0.363825 0.471719 0.557892
4112 3 0.485427 0.377922 0.414412
401 1 0.331257 0.41252 0.509296
1602 2 0.429115 0.438472 0.492415
2081 2 0.356016 0.442075 0.526972
2581 2 0.437378 0.41802 0.561501
3741 2 0.360036 0.385585 0.492784
1102 1 0.436472 0.449982 0.534518
1979 2 0.47432 0.336296 0.534636
3116 2 0.358655 0.450058 0.595288
905 1 0.447489 0.406572 0.469316
1469 2 0.407092 0.478725 0.547141
3910 3 0.467141 0.428447 0.592041
3633 2 0.48933 0.411482 0.479579
348 1 0.346369 0.34589 0.435543
2133 2 0.386339 0.446844 0.400708
7 1 0.110247 0.0283305 0.784681
311 1 0.0638559 0.131187 0.671537
603 1 0.110288 0.0465848 0.634987
699 1 0.0792049 0.0953051 0.744739
1304 2 0.0756485 0.138951 0.757718
1332 2 0.0799364 0.100495 0.701179
2988 2 0.0271029 0.0212348 0.670435
1510 2 0.0308243 0.129348 0.643179
1940 2 0.139932 0.0528137 0.665102
2011 2 0.149591 0.0141116 0.795361
2252 2 0.0987687 0.148715 0.652961
2545 2 0.107162 0.0662337 0.763
2862 2 0.0405395 0.0782487 0.753206
3100 2 0.0760243 0.0705481 0.622928
2906 2 0.156137 0.0110498 0.720296
4398 3 0.0153969 0.117934 0.624965
942 1 0.138334 0.160978 0.661654
4208 3 0.0104213 0.0353265 0.683566
3536 2 0.0904511 0.00727719 0.639914
1967 2 0.0519765 0.162058 0.699625
1660 2 0.165471 0.13129 0.753734
1383 2 0.0869191 0.000261304 0.760897
3015 2 0.163217 0.126265 0.650339
1243 2 0.34791 0.496241 0.666487
195 1 0.17175 0.0424746 0.694153
1372 2 0.213308 0.152228 0.613563
1196 1 0.193003 0.0979265 0.753557
1415 2 0.204018 0.0198576 0.673767
1563 2 0.188346 0.0768892 0.714249
3349 2 0.191306 0.0635965 0.780315
3063 2 0.228259 0.11877 0.770698
443 1 0.187011 0.116032 0.61501
1657 2 0.207462 0.0790805 0.625652
565 1 0.30638 0.0311524 0.68858
937 1 0.301067 0.140034 0.647602
1012 1 0.318815 0.071441 0.755563
1277 2 0.306671 0.128577 0.689384
1478 2 0.283417 0.110452 0.621267
1536 2 0.27171 0.0208357 0.665819
2556 2 0.29547 0.0538386 0.723825
4084 3 0.325809 0.118426 0.703963
4390 3 0.257407 0.150668 0.755856
3104 2 0.295845 0.074147 0.791832
4446 3 0.287058 0.150932 0.726212
4436 3 0.211358 0.0587806 0.609027
3953 3 0.215515 0.0680099 0.649039
3083 2 0.226965 0.00439378 0.611445
3291 2 0.277722 0.165442 0.747755
4222 3 0.00639253 0.187824 0.63053
19 1 0.464565 0.25266 0.602244
2047 2 0.34837 0.0424478 0.765702
3624 2 0.462641 0.0386976 0.767868
5 1 0.382138 0.125719 0.763518
537 1 0.474685 0.0652465 0.66477
619 1 0.43722 0.0614909 0.739128
719 1 0.383175 0.06392 0.674306
1087 1 0.455536 0.14309 0.63411
1640 2 0.384979 0.107131 0.678791
1648 2 0.456321 0.101168 0.646007
2233 2 0.466249 0.0730709 0.707172
2404 2 0.403968 0.0517174 0.711489
2520 2 0.341134 0.0517938 0.675446
2870 2 0.420987 0.100284 0.761936
3613 2 0.41359 0.157348 0.634317
3627 2 0.339031 0.152095 0.629098
3801 2 0.345118 0.106309 0.748515
3864 2 0.395679 0.0542607 0.632927
4260 3 0.389122 0.132539 0.679755
1096 1 0.457303 0.116748 0.788641
1558 2 0.454835 0.0231275 0.664422
1670 2 0.48997 0.118781 0.761848
513 1 0.378058 0.147961 0.60932
330 1 0.489683 0.0191364 0.796073
3415 2 0.389875 0.163659 0.744855
2702 2 0.400617 0.00614935 0.775449
2064 2 0.486209 0.164024 0.656104
282 1 0.378791 0.47739 0.691002
1131 1 0.38288 0.417734 0.745963
161 1 0.0492504 0.246209 0.653121
973 1 0.0604127 0.17604 0.740176
1181 1 0.157602 0.174351 0.748662
1603 2 0.142541 0.172017 0.703851
1610 2 0.0840211 0.248178 0.679443
3172 2 0.0844271 0.212422 0.737947
3441 2 0.149244 0.188104 0.628935
3497 2 0.142436 0.191206 0.786133
3531 2 0.0547558 0.222078 0.6169
2157 2 0.0191872 0.231447 0.680914
1215 2 0.0211696 0.195051 0.745327
111 1 0.077267 0.320934 0.635299
654 1 0.0889359 0.253268 0.723194
733 1 0.135971 0.290151 0.785499
1467 2 0.0566811 0.288748 0.72566
1629 2 0.119127 0.270243 0.747921
1955 2 0.112981 0.299701 0.626549
3564 2 0.0485426 0.288056 0.63942
4231 3 0.0364113 0.281784 0.742864
4205 3 0.0290822 0.236791 0.786062
1473 2 0.147683 0.332426 0.710187
3225 2 0.105695 0.314534 0.801719
4160 3 0.458665 0.491585 0.611287
2479 2 0.0503856 0.247348 0.796396
830 1 0.495807 0.347792 0.776407
4139 3 0.204181 0.160549 0.685771
4408 3 0.166811 0.264266 0.692715
2630 2 0.167651 0.316942 0.772571
2063 2 0.271593 0.172971 0.644667
444 1 0.214021 0.219137 0.708054
739 1 0.231854 0.186535 0.634953
1668 2 0.213635 0.18373 0.677092
3091 2 0.253018 0.234594 0.7063
1866 2 0.194965 0.19642 0.740104
1875 2 0.223678 0.22997 0.627308
9 1 0.295851 0.245029 0.698503
447 1 0.298983 0.201209 0.764678
996 1 0.317766 0.235479 0.615759
2942 2 0.302943 0.236841 0.65614
3480 2 0.315163 0.220539 0.72893
245 1 0.220058 0.273573 0.625243
3663 2 0.185992 0.300992 0.635749
1505 2 0.184819 0.246672 0.693355
2405 2 0.211916 0.313104 0.719528
3061 2 0.251252 0.294246 0.65593
3990 3 0.305988 0.285206 0.75424
3895 2 0.319669 0.281932 0.699394
4142 3 0.275801 0.294398 0.64727
1203 2 0.2887 0.302699 0.762468
1238 2 0.271288 0.229418 0.783522
2285 2 0.328013 0.187825 0.793305
141 1 0.240113 0.325663 0.688591
1394 2 0.377575 0.322759 0.603352
1483 2 0.496373 0.281054 0.604194
4253 3 0.475833 0.187853 0.734649
827 1 0.408106 0.201779 0.734198
1224 2 0.394099 0.237071 0.754829
1508 2 0.397937 0.209471 0.690296
1962 2 0.450387 0.195456 0.733788
3026 2 0.445858 0.249684 0.642075
4036 3 0.385212 0.232358 0.683586
4377 3 0.408958 0.197798 0.66966
1491 2 0.361193 0.231324 0.618561
2951 2 0.389137 0.281879 0.675736
249 1 0.479377 0.282654 0.731838
189 1 0.38905 0.276312 0.77377
3819 2 0.44408 0.272512 0.710289
1128 1 0.432285 0.280287 0.66984
299 1 0.356884 0.304023 0.698435
2187 2 0.472943 0.323711 0.748207
2244 2 0.372253 0.300544 0.740087
2659 2 0.451527 0.317917 0.658548
3814 2 0.486303 0.258199 0.767093
4348 3 0.386298 0.235023 0.617747
618 1 0.370093 0.0261982 0.800602
2292 2 0.4892 0.435865 0.607586
878 1 0.054847 0.331586 0.710644
4298 3 0.130751 0.329236 0.690751
3206 2 0.0802894 0.333917 0.676133
3867 2 0.00346122 0.40162 0.644393
1570 2 0.118521 0.477367 0.690131
3751 2 0.106837 0.4743 0.615318
152 1 0.0968139 0.463156 0.655945
704 1 0.13002 0.395718 0.679112
862 1 0.0829727 0.39747 0.750465
1260 2 0.113658 0.393618 0.719834
2082 2 0.0183801 0.347749 0.692106
2100 2 0.100977 0.420189 0.65733
2661 2 0.0630972 0.359116 0.741915
2729 2 0.0623793 0.432592 0.741874
3170 2 0.0578144 0.479765 0.668742
3846 2 0.142743 0.365345 0.650746
1599 2 0.0742466 0.353632 0.606934
2666 2 0.0911476 0.398221 0.792114
981 1 0.16188 0.485426 0.769934
1796 2 0.00844302 0.385646 0.783949
746 1 0.00514174 0.344315 0.796662
4226 3 0.115427 0.488656 0.713451
2699 2 0.167112 0.416119 0.685035
1771 2 0.295331 0.477903 0.708982
4496 3 0.308792 0.473696 0.686205
714 1 0.179499 0.337979 0.737483
2752 2 0.244139 0.408309 0.632615
1836 2 0.236765 0.344716 0.787272
236 1 0.203796 0.483485 0.625167
383 1 0.179286 0.344727 0.637787
1026 1 0.195267 0.422224 0.718178
2143 2 0.179149 0.4543 0.743579
3186 2 0.191746 0.38017 0.737731
1833 2 0.211173 0.351083 0.668344
3286 2 0.235247 0.428173 0.699048
4415 3 0.315254 0.411823 0.690638
1853 2 0.298275 0.372425 0.772627
4065 3 0.320701 0.43592 0.640067
399 1 0.270043 0.3423 0.759378
732 1 0.257641 0.43631 0.662439
1920 2 0.263047 0.483629 0.770429
2013 2 0.266093 0.346183 0.71545
2181 2 0.23989 0.473465 0.646857
2477 2 0.300417 0.434117 0.656422
4371 3 0.310663 0.389801 0.728358
1428 2 0.318377 0.360987 0.607979
3659 2 0.193219 0.444543 0.606461
3298 2 0.193916 0.370387 0.60522
1388 2 0.323962 0.39184 0.706026
3586 2 0.17717 0.498272 0.655925
2764 2 0.452938 0.386151 0.662645
4356 3 0.34697 0.479289 0.786608
179 1 0.426938 0.41506 0.680734
1992 2 0.400931 0.397002 0.712657
3648 2 0.366002 0.452677 0.724368
149 1 0.476811 0.35143 0.647948
2424 2 0.480997 0.356341 0.604113
1735 2 0.377484 0.38864 0.632995
3431 2 0.434621 0.487923 0.619998
2481 2 0.400318 0.448266 0.666103
3177 2 0.45269 0.439868 0.704821
1038 1 0.356305 0.352246 0.628494