ITEM: TIMESTEP
2499000
ITEM: NUMBER OF ATOMS
6
ITEM: BOX BOUNDS pp pp pp
-1.2291055084396412e+00 3.6158320766317473e+01
-1.2291055084396412e+00 3.6158320766317473e+01
-1.2291055084396412e+00 3.6158320766317473e+01
ITEM: ATOMS id type x y z
2992 2 16.2534793422 16.8774754867 9.396849688
4061 3 13.1842707444 17.7043358062 8.0765501165
432 1 12.9002758545 17.8291724225 10.3465650902
2331 2 12.8009748503 19.3640384334 10.9168355032
751 1 15.435068581 17.7010083253 8.2845363689
1553 2 13.8311106064 17.7760075024 8.8933532183
