ITEM: TIMESTEP
340000
ITEM: NUMBER OF ATOMS
1389
ITEM: BOX BOUNDS pp pp pp
-1.2236181066565699e+00 3.6152833363932345e+01
-1.2236181066565699e+00 3.6152833363932345e+01
-2.4977844235678002e+00 3.7426999680843572e+01
ITEM: ATOMS id type x y z c_poten_pa c_stress_pa[1] c_stress_pa[2] c_stress_pa[3] c_stress_pa[4] c_stress_pa[5] c_stress_pa[6]
2 3 13.4343 -0.542553 -0.336145 -19.9407 1.83617e+07 4.13072e+06 318197 -1.03772e+07 2.01589e+06 351573
4 1 16.8565 -0.912357 1.06397 -318.548 1.14613e+08 5.46429e+07 7.30412e+07 -7.03549e+06 4.30632e+07 2.44286e+07
6 1 13.7857 2.30328 0.463277 -339.336 1.57553e+08 1.15924e+08 1.56372e+08 -7.27401e+06 -2.0083e+07 -9.98111e+06
8 2 14.7304 2.07974 -0.893987 -118.003 -8.10661e+07 -7.8301e+07 9.43485e+07 -1.36391e+07 -3.61071e+07 1.50907e+06
9 2 13.919 3.90488 0.813288 -118.179 -6.21431e+07 -4.23714e+07 -7.45118e+07 1.71265e+07 2.83508e+07 5.33406e+07
10 2 12.4248 1.59581 0.103026 -71.312 -4.9591e+07 -1.09207e+07 -4.93996e+07 -2.84383e+06 1.05938e+07 1.93531e+06
11 2 14.1891 1.79414 2.01018 -121.568 -9.12142e+07 -9.86664e+07 6.35306e+07 9.30781e+06 -2.32615e+07 1.48456e+07
13 2 17.006 0.702363 1.08441 -124.279 -7.79922e+07 6.12652e+06 -6.29374e+07 3.61606e+07 -2.26883e+07 -4.67788e+07
14 2 15.8461 4.43444 2.751 -126.529 -3.61424e+07 -8.23481e+07 3.8294e+07 1.29064e+07 6.33115e+07 5.74167e+06
19 2 16.2565 4.41947 -2.29851 -123.108 -6.29113e+07 -6.42136e+07 3.85905e+07 -1.39234e+07 3.6128e+07 -4.14558e+07
1 1 14.0358 1.44494 3.59064 -316.054 1.68286e+08 2.11893e+07 1.56211e+08 -1.28242e+07 5.94428e+06 4.11257e+07
12 2 15.2868 0.379776 3.81044 -126.155 -7.99242e+07 -2.0366e+06 -7.96599e+07 -5.12994e+07 -2.40636e+07 1.24421e+07
66 2 12.7289 0.48282 3.79019 -116.62 -5.70875e+07 -1.15643e+07 -9.76263e+07 5.85163e+07 -4.88888e+06 -1.70056e+07
70 3 16.4223 2.25326 2.71864 -13.7318 -3.15422e+07 -1.77532e+07 -9.5357e+06 4.72551e+06 4.91546e+06 -3.41478e+06
620 1 16.9429 4.51566 -0.80735 -331.152 1.41533e+08 1.13909e+08 9.03864e+07 2.24137e+07 2.35319e+07 1.04179e+07
630 2 17.3799 3.18864 0.062705 -126.467 -5.61136e+07 -5.16493e+07 -1.41041e+07 -2.41375e+07 3.14931e+07 -5.01104e+07
3 2 16.8497 1.26689 -2.2712 -115.984 -5.99775e+07 -7.41056e+07 -7.77546e+07 -1.97612e+07 -4.17583e+06 7.28091e+06
268 1 15.255 1.46358 -2.34333 -337.575 1.25994e+08 1.37019e+08 1.83399e+08 1.2589e+07 -9.21966e+06 -1.6659e+07
442 1 12.5255 -1.12696 4.03777 -328.624 3.6522e+07 1.30852e+08 1.50054e+08 -2.70153e+07 -2.06071e+07 1.17691e+07
5 1 14.9314 4.9651 1.45902 -314.344 1.67604e+08 1.59822e+07 9.14884e+07 -3.16809e+07 1.35234e+06 -6.34555e+07
267 2 14.5538 0.00147822 -2.40397 -110.899 -8.3455e+07 -4.20166e+07 -1.1632e+08 1.44046e+07 -1.13932e+07 -978563
621 1 18.1024 1.85159 0.604799 -321.336 1.51379e+08 8.43962e+07 7.47997e+07 5.06683e+06 -4.69481e+06 -5.01625e+06
622 1 21.8886 0.389994 0.308334 -331.788 1.41138e+08 1.56189e+08 9.35916e+07 -2.54008e+07 -4.51933e+07 -4.60541e+07
623 1 23.1314 1.03334 2.96644 -258.817 -1.01268e+07 1.15066e+08 209930 3.21722e+07 -65710.9 3.67901e+07
624 1 22.5032 3.3118 1.12732 -332.844 1.69956e+08 5.76386e+07 1.54095e+08 3.45247e+07 -6.1524e+06 4.81548e+07
625 2 22.727 0.119907 1.73178 -130.543 -1.44722e+07 -1.19184e+08 1.40798e+07 -1.88858e+06 4.39788e+07 3.23788e+07
627 2 22.8457 0.22101 -0.953487 -78.0784 -4.2311e+07 -4.47681e+07 -7.70966e+06 -1.99108e+07 8.16695e+06 7.657e+06
628 2 20.7965 -0.806866 0.174075 -118.453 -7.60363e+07 3.05876e+07 -7.14193e+07 6.0707e+07 1.25516e+07 3.85495e+07
629 2 18.9597 2.06738 1.97529 -128.602 -4.26349e+07 -5.77173e+07 1.53893e+07 -2.33254e+07 4.45037e+07 -7.20473e+06
632 2 23.1918 2.51699 2.42597 -129.272 -3.98568e+07 -4.02958e+07 -4.40768e+07 -3.96323e+07 1.18098e+07 -6.62698e+07
633 2 21.6011 2.01369 0.542305 -116.506 -8.64011e+07 6.9698e+07 -6.50738e+07 2.81154e+07 1.40687e+07 4.60517e+07
634 2 18.8446 1.21951 -0.695892 -116.873 -8.56325e+07 -7.88989e+07 -9.06071e+06 1.9584e+06 -1.30766e+07 3.73802e+07
637 1 19.2496 2.04151 3.57577 -330.241 8.64486e+07 1.22329e+08 8.37841e+07 3.37264e+07 -5.68061e+07 -2.76266e+07
641 2 21.8636 4.69461 1.70865 -120.77 -7.07932e+07 4.90559e+07 -6.49038e+07 3.5374e+06 2.03546e+07 4.30316e+07
631 2 19.8201 3.50555 4.04162 -118.428 -8.27173e+07 -3.29986e+06 -5.24388e+07 -9.35802e+06 8.69365e+06 4.33496e+07
626 2 23.5368 3.68167 -0.000665799 -73.0844 -4.25674e+07 -5.17029e+07 -3.73208e+07 -6.57834e+06 521189 -1.94502e+07
639 1 18.4202 0.851135 -2.22763 -351.616 1.17549e+08 1.56044e+08 6.68169e+07 1.33731e+07 1.32965e+07 -2.29205e+07
643 2 18.5834 -0.699607 -2.58962 -84.9688 -4.94931e+07 -1.63736e+07 304166 -5.88126e+06 1.14604e+07 7.59558e+06
672 3 23.5959 4.51047 -2.05373 -17.8298 230739 7.82913e+06 1.20737e+06 378372 2.47213e+06 2.86887e+06
16 2 15.9602 5.28986 0.236644 -124.342 -8.18924e+07 -6.33869e+07 -5.95281e+06 -1.10669e+07 -4.97921e+07 1.55565e+07
23 3 17.1969 7.25076 0.017489 -17.1877 -5.46266e+06 -1.4423e+07 -8.72445e+06 -3.19772e+06 -5.81221e+06 1.12677e+06
25 1 15.049 7.56211 2.77193 -312.881 1.57964e+08 -3.17454e+07 1.41692e+08 1.95771e+06 7.59128e+06 -1.94081e+07
26 2 14.2399 6.28526 2.13892 -119.114 -9.58392e+07 5.57751e+06 -6.21746e+07 -1.4619e+07 -1.98545e+07 7.3679e+07
27 2 15.4653 8.32034 1.38891 -123.134 -9.83433e+07 -6.28378e+07 -3.82381e+07 -3.37704e+07 1.02341e+07 -4.65729e+07
29 2 16.0898 6.7222 3.73292 -121.393 -8.15084e+07 -3.79265e+07 -4.68946e+07 -2.09361e+07 1.82988e+07 -6.56155e+07
30 2 15.6786 9.01146 -1.13016 -130.03 -6.12081e+07 -2.05845e+07 2.4709e+07 -2.23151e+07 -3.11361e+07 6.41535e+07
31 2 14.7278 8.83583 3.72768 -119.773 -7.24362e+07 -2.13498e+07 -7.59164e+07 4.07492e+07 1.92124e+07 4.65319e+07
32 1 15.5805 9.6004 0.387163 -313.682 1.43878e+08 1.01744e+08 7.72401e+07 2.35384e+06 -4.26746e+06 -2.61028e+07
36 2 17.0368 10.1761 0.841725 -119.558 -5.59174e+07 -9.32303e+07 -2.82397e+07 -187412 3.29962e+07 1.51645e+07
37 2 17.1854 9.74707 3.48823 -123.561 -840861 -9.4308e+07 3.45803e+06 1.38441e+07 -6.00953e+07 2.7205e+06
38 2 14.5596 10.7723 0.979042 -131.349 -6.32239e+07 3.77353e+07 -8.9952e+06 -5.31297e+07 -4.00597e+07 8.15419e+07
39 1 16.2642 8.31123 -2.48518 -329.652 1.46209e+08 1.38118e+08 6.78408e+07 -1.44679e+07 2.37391e+07 2.92802e+06
656 3 19.4573 4.9945 1.0681 -17.8886 3.94454e+06 753165 1.77838e+07 -2.88625e+06 -2.0385e+06 -2.29629e+06
34 1 17.9983 10.3552 2.18238 -321.342 7.97169e+07 1.41919e+08 1.68582e+08 6.27045e+06 7.26673e+06 643030
650 1 22.2518 6.20811 2.26469 -345.31 1.77541e+08 1.25818e+08 1.26208e+08 1.38061e+07 -530786 -1.94643e+07
651 1 19.4364 7.57296 -2.15132 -334.846 1.38846e+08 2.15866e+08 1.54075e+08 1.53376e+07 -9.18847e+06 9.20831e+06
653 2 18.2912 5.32878 -1.05924 -83.9319 -3.80289e+07 -3.09757e+07 -3.40741e+07 -3.46016e+06 -8.90099e+06 -4.3272e+06
654 2 22.3315 6.17471 3.90391 -115.024 -1.11279e+08 -7.81593e+07 4.87698e+07 -9.01442e+06 1.83189e+07 4.3309e+06
655 2 17.8264 7.91512 -2.20483 -114.746 -5.70583e+07 -9.21055e+07 -7.77111e+07 -7.74968e+07 -2.34837e+07 1.2724e+07
660 2 18.5976 7.04208 1.75088 -78.474 -3.47895e+07 -2.62328e+07 -2.6008e+07 3.73367e+06 -1.33169e+07 -1.75072e+07
661 1 19.7787 7.96239 1.11119 -345.167 1.53611e+08 1.75152e+08 1.81611e+08 6.03979e+07 -4.25735e+07 -2.77303e+06
665 2 19.7566 7.72554 -0.540559 -116.292 -9.01874e+07 -7.83492e+07 9.65327e+07 -3.89423e+07 -1.43115e+07 4.38301e+07
666 2 21.111 7.27156 1.76387 -116.286 -7.48373e+07 -2.16719e+07 -4.39469e+07 -4.97988e+07 4.0158e+07 -1.42789e+07
667 2 19.3033 9.46956 1.70656 -118.627 -3.82747e+07 2.46454e+07 -2.31285e+07 -7.95624e+07 -3.78903e+07 5.82439e+07
677 1 22.8064 10.5098 -0.769803 -371.969 1.81667e+08 1.2166e+08 1.61894e+08 2.75161e+07 2.82396e+06 -3.10028e+07
678 2 21.7202 9.62085 0.00985471 -74.3377 -6.18436e+07 -3.89735e+07 -5.05719e+07 -1.60825e+07 831088 -2.83392e+06
669 3 23.313 9.08132 1.7831 -19.0057 2.08355e+07 7.54085e+06 4.19343e+06 -3.10212e+06 -2.93225e+06 -223796
664 2 22.6427 10.3168 -2.33793 -72.5925 -5.21863e+07 -3.51237e+07 -4.39421e+07 -1.23705e+07 -3.44841e+06 1.2906e+07
657 2 23.6212 6.72394 1.64138 -73.3208 -5.22245e+07 -2.80846e+07 -3.24472e+07 1.51703e+07 -2.73767e+06 -3.69998e+06
691 3 23.2502 7.76439 -0.450445 -18.6034 1.87098e+07 1.03046e+07 7.6894e+06 392719 3.7883e+06 -1.52248e+06
670 3 19.792 11.0679 -0.346218 -18.4101 8.8477e+06 2.11922e+07 1.6686e+07 -1.09995e+07 6.41601e+06 -4.69669e+06
671 2 24.231 10.0283 -0.228102 -67.1461 -6.02049e+07 -2.56805e+07 -3.87761e+07 -7.74042e+06 882227 6.31823e+06
24 2 15.2539 11.3311 3.41905 -127.345 -1.08367e+08 -6.30727e+07 -3.13348e+06 5.74636e+06 2.06323e+07 -4.73633e+07
33 1 14.5549 11.9753 2.09031 -283.9 7.56864e+07 5.15382e+07 1.34113e+08 5.0704e+06 -8.89168e+06 5.16284e+06
45 2 13.4917 12.9814 2.83244 -142.109 -3.46034e+07 -2.91671e+07 1.55353e+07 -1.55717e+07 -5.30094e+07 9.7892e+07
47 2 13.3406 15.5496 2.91524 -128.624 -4.37952e+07 -4.8229e+07 -2.29185e+07 8.7562e+06 -1.47949e+07 -5.27677e+07
50 2 15.6958 13.0822 1.37126 -155.829 9.67495e+06 -4.2798e+07 4.53998e+07 6.53958e+07 3.10744e+07 -7.55836e+07
51 1 15.3735 14.0479 -0.0327586 -303.087 1.08321e+08 1.34814e+08 4.96528e+07 -8.82396e+06 -3.01373e+07 2.83667e+07
52 1 13.9167 16.4074 1.62895 -353.093 1.74598e+08 7.00223e+07 1.31388e+08 1.37111e+06 2.71871e+07 3.74021e+07
53 2 14.542 15.2524 0.637909 -123.843 -5.66245e+07 -3.79851e+07 -4.65747e+07 -2.68257e+07 -2.12596e+07 1.25593e+07
54 2 16.6452 14.5365 -0.901824 -119.683 -7.01022e+07 -7.66387e+07 -2.68414e+07 1.27834e+07 -6.98202e+07 -3.78359e+07
55 2 14.4645 13.2519 -1.14014 -129.273 -6.84229e+07 -7.71567e+07 3.7132e+07 5.25334e+06 5.85971e+07 1.26034e+07
57 1 13.2732 14.2373 3.79881 -262.792 3.62374e+06 1.14627e+08 5.63381e+07 9.44794e+06 1.02501e+07 -2.88537e+06
49 2 16.3802 14.1166 3.71874 -134.377 -3.28654e+07 -2.73916e+07 2.47275e+07 -3.3695e+07 -3.90024e+07 7.07397e+07
291 2 12.7028 14.8438 -2.33374 -104.361 -1.38337e+08 1.01082e+08 -7.88974e+07 -1.04789e+07 4.06314e+07 -976452
43 3 17.1797 16.6795 1.20511 -18.9062 6.88132e+06 -5.23567e+06 1.93348e+07 -7.41272e+06 -187589 -2.65227e+06
335 2 12.7825 17.2851 0.949669 -73.6613 -3.67337e+07 -1.7872e+07 -4.06941e+07 -14650.4 -8.85587e+06 -1.62557e+07
48 1 17.0947 13.4185 2.4381 -302.597 8.17174e+07 1.10719e+08 9.52217e+07 -4.80378e+07 1.52674e+07 1.66953e+07
42 2 14.0477 17.3609 -1.79417 -127.11 -5.95884e+07 1.94664e+07 -6.94649e+07 1.1392e+07 2.11566e+07 5.93363e+07
56 2 15.1495 17.2879 2.10325 -78.9436 -6.90903e+07 -2.1494e+07 -4.00633e+07 -4.30256e+06 -1.15964e+07 -1.31751e+07
46 2 17.8275 11.9645 2.44972 -121.216 -6.46991e+07 1.91631e+07 -1.00454e+08 -8.56934e+07 -3.23355e+07 2.5987e+07
679 2 18.4273 13.0392 -2.04246 -77.1634 -3.65919e+07 352400 -3.71567e+07 -1.74862e+07 5.64559e+06 -9.66386e+06
681 1 21.9536 13.1841 0.706161 -335.307 1.45481e+08 1.18093e+08 1.5975e+08 2.29486e+07 -1.08772e+07 -7.47401e+06
682 1 19.4305 14.7201 0.837779 -342.384 2.67482e+07 1.49736e+08 1.74827e+08 -1.34334e+06 9.99654e+06 2.4129e+07
683 2 20.3216 13.3616 0.511036 -111.532 -744819 -6.2309e+07 -1.09324e+08 -3.34921e+07 -1.44238e+07 357273
684 2 22.4633 12.0629 -0.338389 -112.923 -7.29163e+07 -3.47112e+07 -7.53907e+07 -1.8445e+07 8.63049e+06 3.65861e+07
685 2 22.4749 15.8159 -2.04948 -116.037 -8.38283e+07 -7.57366e+07 -3.59464e+06 8.11621e+06 7.42501e+06 7.86245e+06
687 2 22.5086 14.6758 0.319711 -118.875 -1.09317e+08 2.23582e+07 -5.86053e+07 6.47124e+06 1.51475e+07 -5.46429e+07
688 2 20.3342 15.4894 1.87299 -74.8051 -4.5717e+07 -9.08817e+07 -3.34582e+07 -5.89335e+06 2.74438e+07 -1.42922e+07
689 2 22.1653 12.5981 2.22127 -117.22 -9.01238e+07 -3.38199e+07 6.20285e+06 7.4327e+06 -9.64778e+06 -6.90113e+07
690 2 19.0318 15.2378 -0.674496 -114.338 -6.38312e+07 -8.65122e+07 2.46331e+07 1.08708e+07 5.41291e+07 8.53493e+06
692 1 18.0079 14.5736 -1.82019 -348.041 1.53322e+08 1.89764e+08 1.12074e+08 -2.28859e+07 2.8071e+06 3.18245e+07
693 1 22.7715 16.1017 -0.460919 -348.835 1.83165e+08 1.42144e+08 1.42979e+08 -1.34848e+07 852642 7.38627e+06
699 2 18.0147 14.3793 1.55208 -125.268 -2.88439e+07 -8.30583e+07 -7.83703e+07 1.27347e+07 -4.21857e+07 -1.81075e+07
680 1 21.751 12.2776 3.77582 -349.818 2.19245e+08 1.32312e+08 1.08288e+08 -9.0979e+06 -7.04155e+06 -1.16377e+07
676 3 22.6325 15.9319 2.41028 -19.7424 2.24324e+07 3.81029e+06 -104446 832353 1.80465e+06 -7.44513e+06
766 2 20.1775 12.4485 4.00983 -70.9757 -2.70686e+07 -3.99914e+07 -2.648e+07 3.95047e+06 -1.2634e+07 7.49004e+06
328 2 18.1353 17.3397 3.30461 -76.4164 -4.50257e+07 -5.30951e+07 -3.11209e+07 3.80642e+06 5.49205e+06 1.68009e+06
44 3 20.5048 16.9535 3.54728 -21.5724 1.15194e+07 4.08119e+06 5.20191e+06 1.00614e+07 -7.53137e+06 -5.83212e+06
1326 3 20.0997 16.5773 -2.32486 -21.7536 -7.07063e+06 -8.97327e+06 -1.38493e+06 1.42565e+06 607934 -5.74263e+06
1040 2 21.7918 17.3712 -0.0984819 -114.755 -8.77607e+07 2.92219e+07 -1.03612e+08 -2.56342e+07 -1.46028e+07 1.25651e+07
1026 2 24.2225 16.6405 -0.112468 -69.8695 -5.8422e+07 -3.33825e+07 -2.95119e+07 1.69065e+07 7.15746e+06 452142
344 2 10.9139 21.0697 -0.246452 -74.4284 -4.27388e+07 -3.13829e+07 -3.28074e+07 8.82929e+06 1.84763e+06 6.4747e+06
314 3 12.4614 23.5657 1.19715 -15.3972 5.98123e+06 1.52669e+07 8.54317e+06 1.25713e+07 4.84201e+06 -868992
315 2 13.2166 19.8489 -0.642447 -118.495 -5.41968e+07 -1.02982e+06 -1.0294e+08 -4.71797e+07 5.6394e+06 3.38752e+07
316 3 11.5188 19.2412 1.15243 -22.8758 -441377 1.03135e+07 6.63557e+06 -8.42791e+06 5.60473e+06 5.30871e+06
317 1 14.3664 18.8971 -1.36717 -324.856 1.28778e+08 1.03787e+08 1.35127e+08 1.26928e+07 -6.07618e+07 -2.14312e+07
318 1 16.7809 20.0121 0.335158 -344.651 1.12341e+08 1.1026e+08 1.64625e+08 3.88821e+07 -3.20703e+07 -2.35547e+07
319 1 15.3489 22.6743 1.45566 -331.217 1.13423e+08 1.67349e+08 9.5844e+07 9.42581e+06 -4.12354e+07 -1.64246e+07
321 2 15.9874 21.2598 0.978457 -119.491 -8.68535e+07 -6.318e+07 -8.96397e+07 1.42856e+07 1.05259e+07 3.00749e+07
322 2 15.6962 19.0864 -0.470194 -124.015 -3.06423e+07 -5.98889e+07 -3.73428e+07 1.33967e+07 4.60134e+07 2.29401e+07
323 2 12.6405 20.1015 3.00186 -70.8124 -3.81121e+07 -4.73005e+07 -3.67928e+07 5.64447e+06 -4.82267e+06 -7.24953e+06
326 2 14.1232 22.1828 2.44395 -119.313 -5.48689e+07 -6.71367e+07 -4.70848e+06 1.28244e+07 -2.97397e+07 -4.73193e+07
329 1 12.2276 21.097 -1.09335 -339.06 1.11958e+08 1.22204e+08 1.31962e+08 9.12793e+06 2.77317e+07 -3.96101e+07
336 2 13.0391 22.5168 -0.988081 -119.449 -8.38693e+07 -2.40617e+07 -8.48325e+07 8.40417e+06 -2.73277e+07 -1.94505e+07
330 3 14.1478 19.3031 1.49168 -20.4055 1.19654e+07 -1.99713e+06 -9.82828e+06 3.70313e+06 5.75409e+06 -1.9458e+06
343 2 15.0916 23.4316 0.0477824 -117.664 -7.66279e+07 -1.04647e+08 -5.39007e+06 -4.5726e+06 1.69181e+06 -4.07702e+07
355 1 14.2432 23.5459 -1.33579 -337.595 1.59846e+08 9.98735e+07 1.16157e+08 -1.29546e+07 -5.6805e+06 3.189e+07
337 1 13.5038 21.2657 3.67533 -361.198 1.55381e+08 1.70513e+08 1.20853e+08 1.95253e+07 2.59806e+07 2.68503e+07
446 3 16.0947 18.1909 3.95667 -21.7483 8.01629e+06 7.72694e+06 -1.01092e+07 -4.09595e+06 5.95376e+06 -2.76685e+06
331 2 16.3894 23.49 2.39246 -120.725 -7.25909e+07 -5.04954e+07 -4.84594e+07 1.45744e+07 2.10373e+07 4.07986e+07
324 2 17.422 19.2793 1.64699 -116.109 -8.09535e+07 -8.61982e+07 -1.33913e+07 -5.73789e+06 4.20348e+07 -7.41137e+06
325 2 17.8316 20.579 -0.724782 -78.9499 -4.09571e+07 -2.57077e+07 -3.02144e+07 1.31177e+07 -3.45272e+06 -1.43469e+07
332 3 17.6284 21.4156 3.11493 -23.0453 3.47951e+06 212998 -362638 5.73483e+06 1.19475e+06 1.41225e+06
313 2 19.6436 18.1725 1.29756 -109.866 -7.75434e+07 -1.16129e+08 -4.41473e+07 1.66185e+07 -2.21183e+07 2.47757e+07
320 1 18.6332 18.5947 2.49423 -351.702 1.07887e+08 1.53148e+08 1.0763e+08 -1.42817e+06 -2.35353e+07 -5.18271e+06
327 3 19.8283 20.8462 -1.77293 -21.4237 5.67694e+06 1.97951e+06 1.59798e+06 -5.86435e+06 1.28877e+06 470797
333 2 19.2725 21.7367 1.61628 -79.2389 -5.17233e+07 -3.54194e+07 -7.47903e+07 -1.75683e+07 1.50465e+07 1.13852e+07
1019 1 20.6977 21.5855 0.988833 -352.367 1.04862e+08 1.35825e+08 1.5704e+08 -1.93786e+07 -7.30892e+06 2.75739e+07
1020 1 20.6483 18.5283 0.0729296 -354.818 1.29147e+08 1.48553e+08 1.75658e+08 3.16833e+06 3.88819e+07 -3.21001e+07
1022 1 23.0313 19.2875 3.78002 -346.52 1.53217e+08 1.35372e+08 1.41332e+08 -1.31887e+06 2.96216e+07 6.2283e+07
1027 2 21.9198 21.8998 2.01664 -111.333 -4.6469e+07 -1.04162e+08 -7.92564e+07 2.54152e+07 3.25246e+07 -8.16881e+06
1030 2 21.0493 20.0838 0.419968 -113.309 -7.03891e+07 1.82965e+07 -9.33051e+07 -3.44749e+07 1.1868e+06 2.35873e+07
1031 2 20.7476 22.7001 -0.222806 -118.176 -8.29744e+07 -1.14639e+07 -6.40709e+07 1.5587e+06 1.68397e+07 -4.08086e+07
1034 2 19.3357 19.6022 3.54233 -113.262 -7.48796e+07 -7.26357e+07 -4.654e+07 7.11555e+06 3.63473e+07 4.03884e+07
1035 2 19.8693 18.542 -1.33181 -78.0057 -4.51755e+07 -6.67027e+07 -2.66231e+07 1.4237e+07 -205556 -1.14042e+07
339 3 17.8585 22.8848 0.0650373 -18.4873 3.84858e+06 2.06542e+07 1.41622e+07 -7.38712e+06 5.67e+06 6.00685e+06
1318 2 22.1094 20.6916 -2.43383 -78.9598 -4.08938e+07 -2.67534e+07 -6.42681e+07 -1.1812e+06 1.16447e+07 1.8699e+07
1036 2 22.5308 18.19 2.72428 -79.6291 -4.16477e+07 -3.13893e+07 -3.77212e+07 1.02553e+07 -1.15944e+07 -8.72674e+06
1042 1 23.5124 21.9038 2.2562 -334.157 1.41633e+08 6.69344e+07 1.47613e+08 -4.77322e+07 -3.74342e+06 5.32248e+07
1032 3 23.7008 18.785 0.756437 -18.6725 1.28096e+07 1.33331e+07 6.76123e+06 -5.82535e+06 -2.37246e+06 -5.50738e+06
1024 2 23.8121 20.4973 3.00185 -118.359 -9.87865e+07 -9.16431e+06 -4.1483e+07 1.90716e+07 -1.63723e+07 -4.22025e+07
1044 2 24.162 23.2046 2.96454 -112.823 -6.50098e+07 -1.07701e+07 -1.07296e+08 3.51996e+07 3.23082e+06 2.15128e+06
1028 2 24.0894 22.0647 0.712302 -112.264 -8.98833e+07 -4.68416e+07 -2.48975e+07 2.95227e+06 -1.3037e+07 -6.13029e+07
1046 2 25.0671 23.1294 -1.57372 -78.7357 -3.21415e+07 -2.84943e+07 -1.36094e+07 -1.78892e+06 1.47741e+06 5.79567e+06
1047 1 24.3631 23.4277 -0.195625 -339.18 1.17656e+08 1.72612e+08 9.34878e+07 9.37961e+06 -9.10916e+06 1.76075e+07
342 2 13.9524 25.2757 1.98006 -80.1362 -3.39321e+07 -4.58871e+06 -5.28208e+07 8.24472e+06 1.86077e+07 -5.82561e+06
345 1 14.414 26.786 2.20783 -343.575 1.19608e+08 1.66648e+08 1.08726e+08 1.29247e+07 -6.18029e+07 2.59883e+07
346 2 14.0117 27.1388 3.77038 -116.598 -8.05425e+07 -8.21126e+07 2.85433e+07 -1.37064e+07 -1.60421e+07 6.79486e+06
347 2 13.7128 27.7769 1.11352 -131.707 -4.98175e+07 -6.10066e+07 -9.05546e+06 -1.67134e+07 1.50995e+07 -3.67326e+07
350 1 17.147 27.113 3.31007 -332.981 1.44017e+08 1.12749e+08 1.60431e+08 -1.84969e+07 1.43355e+07 -1.56277e+07
351 2 16.029 27.0027 2.05 -107.048 4.33233e+07 -1.24894e+08 -9.33103e+07 2.27857e+07 4.10294e+07 3.21038e+06
374 3 16.8778 27.8562 -0.0289122 -22.123 -9.2766e+06 2.99417e+07 1.22341e+07 903397 1.20084e+07 3.72691e+06
581 2 13.7385 25.0529 -1.65167 -115.068 -8.74507e+07 8.75275e+06 -7.34768e+07 -1.45071e+07 -2.63741e+06 -3.00089e+07
591 2 13.1742 27.6583 -1.5058 -127.647 -8.35445e+07 -1.0885e+07 -1.34716e+07 -2.87278e+06 -1.58945e+07 7.0414e+07
619 1 13.3923 28.546 -0.221428 -275.19 5.31455e+07 5.16055e+07 9.46327e+07 2.97239e+06 1.93469e+07 -6.37198e+06
598 2 17.1425 29.6805 -2.02617 -116.916 -4.51768e+07 2.75456e+07 -8.37842e+07 -6.90918e+07 -1.31938e+07 1.06664e+07
584 1 13.9767 26.5029 -2.39863 -346.096 2.0347e+08 1.1473e+08 1.43054e+08 2.46118e+07 1.98995e+07 -5.08044e+07
587 2 15.4921 26.9205 -2.11624 -75.4814 -2.74139e+07 -3.7483e+07 -3.7534e+07 9.14597e+06 1.65957e+07 2.34971e+07
341 1 16.6888 24.0864 3.87431 -346.918 1.1503e+08 8.08932e+07 1.16339e+08 -2.68343e+06 -5.13149e+07 -1.20994e+07
352 2 16.5153 28.4643 3.97311 -116.789 -9.25088e+07 -7.07552e+07 -1.08261e+08 -2.85557e+07 -4.42234e+07 8.43383e+06
340 3 13.5312 24.1219 3.98985 -23.3751 -1.05862e+06 -1.41173e+07 3.31163e+06 -2.268e+06 1.6848e+06 -7.07633e+06
348 2 16.748 25.689 3.95837 -111.917 -1.18596e+08 -6.06559e+07 -1.05265e+08 9.28172e+06 -2.14052e+07 2.57473e+07
1038 3 22.6271 26.0943 0.635609 -13.9963 9.53245e+06 -8.66076e+06 -7.64024e+06 1.06431e+07 -4.04697e+06 -1.12238e+07
1041 1 21.4156 23.9301 -1.05425 -328.377 1.10488e+08 9.2875e+07 1.55551e+08 1.31759e+07 -2.01915e+07 -1.03572e+07
354 2 18.7783 27.3718 -1.54742 -124.786 -1.43257e+07 -1.69348e+07 -1.58518e+07 -7.13763e+07 5.56117e+07 -1.67944e+07
1045 2 22.9026 24.1162 -0.424562 -119.962 -3.77486e+07 -7.34287e+07 -1.06591e+08 -3.09538e+07 1.80317e+07 -1.78825e+07
1051 2 21.388 24.8382 2.35952 -74.8912 -5.69445e+07 -6.67099e+07 -79352.6 -2.53225e+06 -8.45796e+06 -1.0682e+06
1052 2 20.5253 25.2856 -1.02707 -128.868 -2.60496e+07 2.70547e+07 -6.24447e+07 -4.79014e+07 6.54313e+06 9.56492e+06
1053 1 22.2 25.8411 3.29556 -346.008 1.59292e+08 1.5736e+08 1.06693e+08 3.84482e+07 4.28808e+07 2.14486e+07
1055 1 19.6311 26.5288 -0.409123 -330.36 1.54401e+08 1.19439e+08 1.38543e+08 7.03125e+06 -6.29739e+06 -1.85765e+07
1056 2 20.7136 27.5331 0.384761 -125.504 -4.89859e+07 -3.49922e+07 1.70118e+06 3.77537e+07 5.39779e+07 4.05096e+07
1057 1 20.9025 28.3539 1.80778 -325.556 1.63687e+08 1.01488e+08 1.24786e+08 9.99766e+06 7.08403e+06 -1.58632e+07
1061 2 21.9041 29.6412 1.74977 -122.372 -9.77822e+07 1.3828e+07 -5.38255e+07 2.54256e+07 7.94847e+06 3.88996e+07
1062 2 21.5499 27.3011 2.88435 -120.153 -5.14712e+07 -2.98471e+07 -1.12188e+07 -7.15511e+07 1.65987e+07 -6.01544e+07
1063 2 19.4812 29.1618 1.84432 -111.775 -8.27682e+07 -4.42707e+07 -7.63025e+07 -4.40328e+07 1.39123e+07 -2.78195e+07
1067 3 19.2436 24.1356 2.16135 -23.3112 2.48489e+06 1.71725e+07 -2.02188e+06 -5.60007e+06 7.33688e+06 -4.28158e+06
1070 2 18.6149 25.9661 0.66291 -79.5038 -4.10156e+07 -1.1788e+07 -1.75146e+07 3.12184e+06 -1.08195e+07 6.02912e+06
1071 2 18.7241 27.2643 3.88016 -109.713 -8.64399e+06 -1.10447e+08 -297828 1.26797e+07 1.04646e+08 2.14924e+07
1066 3 20.8863 29.677 -0.846642 -15.231 1.31816e+07 -3.06713e+06 8.96896e+06 -3.82496e+06 1.91048e+06 7.42619e+06
1054 2 23.7443 25.7638 2.75225 -111.961 -5.09764e+07 -7.34609e+07 -8.15098e+07 -4.81479e+07 -1.64478e+07 5.05975e+06
1048 1 24.9059 24.6322 2.56037 -349.918 1.30675e+08 1.26172e+08 1.5532e+08 7.72134e+06 -1.3183e+07 -3.82006e+07
1049 2 25.0612 24.4153 0.921763 -110.502 -9.10485e+07 -7.23767e+07 -6.73381e+06 -6.16621e+06 9.826e+06 3.82934e+07
1037 2 26.2342 24.9308 3.31919 -65.1367 -4.43322e+07 -3.95622e+07 -4.42795e+07 1.46434e+06 -1.3086e+06 1.5293e+06
338 2 11.3042 35.4526 3.48961 -77.4103 -4.40755e+07 -2.12348e+07 -2.18303e+07 -3.76051e+06 58264.3 1.25751e+07
18 1 15.4358 36.136 3.70521 -296.494 4.25747e+07 8.55615e+07 6.41774e+07 6.93813e+07 1.00554e+08 6.64152e+06
371 2 17.2428 30.0334 0.947172 -71.8151 -3.45746e+07 -2.88099e+07 -2.20268e+07 1.86998e+07 -1.67052e+06 1.23207e+07
359 3 12.4864 34.2847 1.75684 -14.2635 1.39842e+07 2.79267e+06 8.59483e+06 -537044 -7.68672e+06 -470062
358 2 15.6425 36.0319 0.174296 -85.6795 -2.19999e+07 -3.17539e+07 -4.59871e+07 -8.04079e+06 -1.36973e+07 -394326
353 2 13.4109 30.1259 -0.148251 -135.558 -5.90174e+07 5.06733e+07 -7.03791e+07 2.17062e+07 -1.24057e+06 2.43353e+07
7 2 13.9108 35.7083 3.24444 -119.022 1.23846e+07 -8.39073e+07 -8.46079e+07 1.36016e+06 -1.84817e+07 5.1321e+06
20 2 16.5459 35.6925 2.55428 -155.077 -5.17199e+07 2.56975e+07 -4.50813e+06 -5.00499e+07 -7.8762e+07 -2.33179e+07
357 2 13.2073 32.7736 -0.857796 -116.874 -8.37532e+07 -2.72166e+07 -6.09791e+07 -1.31929e+07 2.04962e+07 -2.87271e+07
361 2 13.9753 32.1842 1.54991 -126.63 -6.93802e+07 -5.88035e+07 6.59337e+07 1.08135e+07 -1.98532e+07 5.4629e+07
362 1 17.1945 33.9949 2.64752 -318.115 6.86171e+07 6.48911e+07 9.50736e+07 1.51826e+07 1.12819e+07 3.68262e+07
363 1 14.0211 31.6457 -0.0123676 -324.604 1.69216e+08 1.04043e+08 1.25587e+08 -2.82217e+07 -85452.6 -472010
365 2 15.4642 31.5551 -0.775442 -119.106 -3.11319e+07 -7.14941e+07 -5.56896e+07 -2.96779e+06 -7.56192e+07 3.67151e+07
369 2 15.1751 30.6709 3.21439 -114.741 -8.08015e+07 -3.80783e+07 -1.08541e+08 -9.17368e+06 1.90749e+07 -2.26266e+07
370 2 13.1758 35.1127 -2.12501 -107.825 -8.35466e+07 -3.81794e+07 -6.71251e+07 3.99726e+07 -1.17506e+07 -2.25004e+07
373 1 16.6366 31.2336 -1.87417 -342.723 9.97897e+07 1.58758e+08 1.97446e+08 1.06576e+07 7.59828e+06 -9.33292e+06
375 1 14.6276 32.186 3.05323 -324.509 1.07935e+08 9.83556e+07 1.20679e+08 -2.00349e+06 -3.00028e+07 5.47726e+07
376 2 15.8287 33.2652 3.0576 -120.888 -6.01644e+07 -4.58768e+07 -1.25731e+08 8.99514e+06 2.66132e+07 884806
377 3 15.7934 33.8418 -0.54991 -18.7861 6.18247e+06 -1.13066e+07 9.90142e+06 -1.78018e+07 6.42435e+06 -9.71871e+06
618 1 12.6844 33.5489 -2.20585 -356.587 1.62975e+08 1.26763e+08 1.42956e+08 -2.29744e+06 1.00485e+07 2.67361e+07
360 2 17.5291 33.527 1.20749 -84.7034 -5.2047e+07 -4.57766e+07 -4.5306e+07 -1.87595e+07 3.508e+07 9.3586e+06
368 3 17.5185 34.9506 -1.38205 -19.2164 -8.11568e+06 6.17448e+06 -8.11195e+06 -3.50637e+06 -5.54279e+06 -7.60852e+06
1083 2 18.3296 35.9713 0.624315 -120.105 -2.30589e+07 -1.27873e+08 -5.86116e+07 -3.93224e+07 -1.36267e+07 1.35672e+07
1058 1 22.4499 31.0802 2.29429 -328.524 1.28477e+08 1.22079e+08 1.39366e+08 -4.26855e+07 -1.39388e+07 -1.61827e+07
1069 2 23.0706 30.8582 3.79796 -120.474 -6.89268e+07 -1.03769e+08 6.54552e+07 1.03706e+07 -1.24009e+06 -5.93057e+06
356 2 18.1596 34.1035 3.92122 -124.065 -7.28528e+07 -7.41319e+07 -2.21054e+07 -3.84693e+06 2.85776e+07 3.54146e+06
1072 2 17.9599 32.1579 -1.55953 -117.797 7.029e+06 -4.46926e+07 -9.45171e+07 3.47509e+07 1.87594e+07 7.9579e+06
1073 1 18.6245 30.5414 1.55049 -351.582 1.56837e+08 1.67857e+08 1.02935e+08 3.52646e+07 2.49286e+07 -2.24604e+06
1076 1 21.3149 33.922 2.87996 -348.591 1.14715e+08 1.11761e+08 1.35057e+08 3.76561e+07 6.00722e+06 4.31347e+06
1077 1 19.4209 32.4214 -0.894881 -337.253 1.45938e+08 1.31973e+08 1.6097e+08 3.89753e+06 -1.04694e+07 1.05338e+07
1078 2 21.4113 32.3119 2.60145 -115.31 -8.09911e+07 1.27184e+07 -9.42957e+07 -1.91744e+07 -4.3367e+06 2.79098e+07
1079 1 19.8085 35.2751 0.443457 -340.303 1.50608e+08 1.59604e+08 1.25758e+08 3.45143e+06 5.35768e+06 -6.0093e+06
1080 2 22.7631 34.5716 2.81035 -80.7922 -3.5321e+07 -1.12429e+07 -6.12265e+07 7.18885e+06 -1.17454e+07 1.18523e+07
1081 2 20.3099 34.6554 1.85802 -115.842 -7.3458e+07 -6.36877e+07 -4.51903e+07 -1.96947e+07 2.41883e+07 -1.92435e+07
1082 2 19.4447 31.4168 0.40986 -119.049 -7.04743e+07 -1.17474e+07 3.23257e+06 8.92813e+06 -3.7185e+07 -5.28243e+07
1085 2 18.535 31.1816 3.0562 -118.188 -7.2634e+07 -7.46118e+07 3.82171e+06 -933547 5.16584e+06 -1.93378e+06
1086 2 19.6177 34.0458 -0.644032 -121.711 -1.1094e+08 5.99419e+07 -4.36435e+07 2.27033e+07 1.60658e+07 3.45125e+07
1090 2 23.1282 31.9392 -1.64299 -113.682 -7.4525e+07 -8.61203e+07 1.95165e+07 3.63314e+07 4.87311e+07 -6.66112e+06
1091 2 20.6185 31.958 -1.92326 -121.063 -3.11425e+07 -5.42908e+07 -2.61744e+07 -5.4667e+07 -7.19606e+07 -3.18295e+06
1093 2 23.3336 31.7159 1.07794 -116.831 -8.84016e+07 -7.62184e+07 2.35028e+07 1.7319e+07 8.81892e+06 -3.62312e+07
1384 3 22.269 35.52 -1.91756 -18.7607 7.63962e+06 8.30199e+06 9.23034e+06 -777705 1.9762e+06 -9.51751e+06
1096 2 22.427 33.8726 -0.14862 -75.724 -6.80495e+07 -3.10465e+07 -4.15326e+07 -2.01334e+06 -2.98489e+06 -1.94942e+07
1098 1 23.5207 32.7072 -0.235986 -357.669 1.68456e+08 1.45204e+08 1.12308e+08 -3.00514e+07 -9.43602e+06 4.06127e+06
638 3 23.7849 35.4336 0.806932 -19.703 8.52482e+06 -5.13913e+06 1.1542e+07 -6.21518e+06 -9.41272e+06 -9.24712e+06
1094 2 24.9577 33.3513 -0.114885 -69.7453 -6.07672e+07 -2.863e+07 -1.57798e+07 4.64437e+06 1.19626e+07 1.45542e+07
1097 3 24.5797 33.1286 2.74215 -16.9494 -3.36696e+06 787708 2.53785e+07 -6.61571e+06 -5.90163e+06 -381636
17 3 16.2774 1.4788 5.92418 -15.5261 3.37442e+06 5.19898e+06 -3.95927e+06 -2.11619e+06 132079 6.24424e+06
60 1 14.0821 3.77775 5.93963 -339.538 1.64994e+08 1.27203e+08 1.4491e+08 3.84758e+06 2.28253e+07 9.50958e+06
61 2 14.6944 0.413506 10.0372 -127.8 -6.01859e+07 -8.4893e+07 2.06313e+07 -3.4849e+06 -2.96222e+07 3.81788e+07
62 1 15.5692 0.130419 8.68369 -305.077 8.03691e+07 1.52211e+08 5.49955e+07 -1.50465e+06 -4.74009e+07 -3.20497e+07
67 2 14.8039 -0.751641 7.55257 -134.462 -4.69085e+07 3.82984e+07 -7.86069e+06 5.29953e+07 3.56169e+07 5.61995e+07
68 2 14.2274 3.51973 7.58736 -121.516 -8.38056e+07 -5.80768e+07 1.15909e+08 2.28972e+07 -9.35393e+06 1.38649e+07
77 2 14.1136 2.50891 4.83847 -124.583 -8.56224e+07 -3.47713e+07 8.02971e+07 -992315 5.59433e+06 5.84358e+07
711 2 16.8747 -0.717406 9.22909 -125.585 -1.36036e+07 -8.18331e+07 -3.135e+07 -2.30483e+07 4.46119e+07 412791
731 2 16.3082 1.60573 8.39979 -124.684 -2.0303e+07 3.0718e+07 -5.98981e+07 9.79143e+07 2.20243e+07 5.6523e+07
80 2 15.3521 4.6639 5.36668 -119.262 -7.72454e+07 -4.33671e+07 -1.61878e+07 2.34236e+07 -4.29326e+07 -4.14075e+07
81 2 15.2239 4.26493 10.1871 -122.236 -6.95603e+07 -7.37133e+07 5.67928e+07 -512985 3.35596e+07 4.69397e+07
85 1 13.9505 3.85707 9.17717 -332.064 1.75678e+08 1.29649e+08 1.19253e+08 -2.24586e+06 -4.81092e+06 1.48642e+07
83 2 13.3799 2.56995 10.0645 -123.086 -7.69266e+07 -2.39001e+07 1.25385e+07 6.97362e+06 -1.78911e+07 -7.46795e+07
58 2 12.7644 4.60042 5.73415 -70.2722 -5.99067e+07 -3.19535e+07 -4.75606e+07 3.4469e+06 -6.02258e+06 2.38583e+06
645 2 20.2683 0.89457 4.12363 -125.619 -5.65489e+07 -3.97393e+07 1.91595e+06 -2.531e+07 3.73278e+07 -5.24567e+07
704 1 17.6466 2.33231 9.13692 -310.609 9.55834e+07 7.94852e+07 1.59147e+08 -9.92045e+06 2.99081e+07 4.22952e+07
635 2 22.7246 0.725742 4.44744 -139.261 -2.37316e+07 -5.3756e+07 434517 4.95725e+06 -7.11364e+07 1.93331e+06
640 1 19.3442 4.60549 5.15978 -330.94 8.60416e+07 8.85285e+07 1.43984e+08 -1.26165e+07 -2.37595e+07 -2.42072e+06
642 3 23.3563 2.34009 7.29662 -15.6259 -815013 4.21926e+06 2.66275e+06 -2.99905e+06 1.98858e+06 293746
646 2 19.6199 3.84804 6.57588 -120.174 -4.59035e+07 -6.00206e+07 -2.18157e+07 -2.01345e+07 4.06701e+07 -6.49684e+07
648 2 17.8709 1.87839 4.3634 -84.0473 -3.14886e+07 -3.74969e+07 -1.93859e+07 -7.02793e+06 -542097 5.09238e+06
705 1 17.7292 -0.290643 10.5693 -311.966 4.08998e+07 1.06094e+08 5.25961e+07 5.36355e+07 -1.33146e+07 4.7603e+07