ITEM: TIMESTEP
340000
ITEM: NUMBER OF ATOMS
526
ITEM: BOX BOUNDS pp pp pp
-1.2236181066565699e+00 3.6152833363932345e+01
-1.2236181066565699e+00 3.6152833363932345e+01
-2.4977844235678002e+00 3.7426999680843572e+01
ITEM: ATOMS id type x y z c_poten_pa c_stress_pa[1] c_stress_pa[2] c_stress_pa[3] c_stress_pa[4] c_stress_pa[5] c_stress_pa[6]
4.0 1 16.8565 -0.912357 1.06397 -318.548 114613000.0 54642900.0 73041200.0 -7035490.0 43063200.0 24428600.0
6.0 1 13.7857 2.30328 0.463277 -339.336 157553000.0 115924000.0 156372000.0 -7274010.0 -20083000.0 -9981110.0
8.0 2 14.7304 2.07974 -0.893987 -118.003 -81066100.0 -78301000.0 94348500.0 -13639100.0 -36107100.0 1509070.0
13.0 2 17.006 0.702363 1.08441 -124.279 -77992200.0 6126520.0 -62937400.0 36160600.0 -22688300.0 -46778800.0
14.0 2 15.8461 4.43444 2.751 -126.529 -36142400.0 -82348100.0 38294000.0 12906400.0 63311500.0 5741670.0
19.0 2 16.2565 4.41947 -2.29851 -123.108 -62911300.0 -64213600.0 38590500.0 -13923400.0 36128000.0 -41455800.0
1.0 1 14.0358 1.44494 3.59064 -316.054 168286000.0 21189300.0 156211000.0 -12824200.0 5944280.0 41125700.0
12.0 2 15.2868 0.379776 3.81044 -126.155 -79924200.0 -2036600.0 -79659900.0 -51299400.0 -24063600.0 12442100.0
620.0 1 16.9429 4.51566 -0.80735 -331.152 141533000.0 113909000.0 90386400.0 22413700.0 23531900.0 10417900.0
268.0 1 15.255 1.46358 -2.34333 -337.575 125994000.0 137019000.0 183399000.0 12589000.0 -9219660.0 -16659000.0
5.0 1 14.9314 4.9651 1.45902 -314.344 167604000.0 15982200.0 91488400.0 -31680900.0 1352340.0 -63455500.0
621.0 1 18.1024 1.85159 0.604799 -321.336 151379000.0 84396200.0 74799700.0 5066830.0 -4694810.0 -5016250.0
622.0 1 21.8886 0.389994 0.308334 -331.788 141138000.0 156189000.0 93591600.0 -25400800.0 -45193300.0 -46054100.0
623.0 1 23.1314 1.03334 2.96644 -258.817 -10126800.0 115066000.0 209930.0 32172200.0 -65710.9 36790100.0
624.0 1 22.5032 3.3118 1.12732 -332.844 169956000.0 57638600.0 154095000.0 34524700.0 -6152400.0 48154800.0
625.0 2 22.727 0.119907 1.73178 -130.543 -14472200.0 -119184000.0 14079800.0 -1888580.0 43978800.0 32378800.0
632.0 2 23.1918 2.51699 2.42597 -129.272 -39856800.0 -40295800.0 -44076800.0 -39632300.0 11809800.0 -66269800.0
637.0 1 19.2496 2.04151 3.57577 -330.241 86448600.0 122329000.0 83784100.0 33726400.0 -56806100.0 -27626600.0
641.0 2 21.8636 4.69461 1.70865 -120.77 -70793200.0 49055900.0 -64903800.0 3537400.0 20354600.0 43031600.0
631.0 2 19.8201 3.50555 4.04162 -118.428 -82717300.0 -3299860.0 -52438800.0 -9358020.0 8693650.0 43349600.0
25.0 1 15.049 7.56211 2.77193 -312.881 157964000.0 -31745400.0 141692000.0 1957710.0 7591280.0 -19408100.0
27.0 2 15.4653 8.32034 1.38891 -123.134 -98343300.0 -62837800.0 -38238100.0 -33770400.0 10234100.0 -46572900.0
32.0 1 15.5805 9.6004 0.387163 -313.682 143878000.0 101744000.0 77240100.0 2353840.0 -4267460.0 -26102800.0
37.0 2 17.1854 9.74707 3.48823 -123.561 -840861.0 -94308000.0 3458030.0 13844100.0 -60095300.0 2720500.0
39.0 1 16.2642 8.31123 -2.48518 -329.652 146209000.0 138118000.0 67840800.0 -14467900.0 23739100.0 2928020.0
34.0 1 17.9983 10.3552 2.18238 -321.342 79716900.0 141919000.0 168582000.0 6270450.0 7266730.0 643030.0
650.0 1 22.2518 6.20811 2.26469 -345.31 177541000.0 125818000.0 126208000.0 13806100.0 -530786.0 -19464300.0
651.0 1 19.4364 7.57296 -2.15132 -334.846 138846000.0 215866000.0 154075000.0 15337600.0 -9188470.0 9208310.0
655.0 2 17.8264 7.91512 -2.20483 -114.746 -57058300.0 -92105500.0 -77711100.0 -77496800.0 -23483700.0 12724000.0
33.0 1 14.5549 11.9753 2.09031 -283.9 75686400.0 51538200.0 134113000.0 5070400.0 -8891680.0 5162840.0
45.0 2 13.4917 12.9814 2.83244 -142.109 -34603400.0 -29167100.0 15535300.0 -15571700.0 -53009400.0 97892000.0
50.0 2 15.6958 13.0822 1.37126 -155.829 9674950.0 -42798000.0 45399800.0 65395800.0 31074400.0 -75583600.0
51.0 1 15.3735 14.0479 -0.0327586 -303.087 108321000.0 134814000.0 49652800.0 -8823960.0 -30137300.0 28366700.0
52.0 1 13.9167 16.4074 1.62895 -353.093 174598000.0 70022300.0 131388000.0 1371110.0 27187100.0 37402100.0
53.0 2 14.542 15.2524 0.637909 -123.843 -56624500.0 -37985100.0 -46574700.0 -26825700.0 -21259600.0 12559300.0
57.0 1 13.2732 14.2373 3.79881 -262.792 3623740.0 114627000.0 56338100.0 9447940.0 10250100.0 -2885370.0
291.0 2 12.7028 14.8438 -2.33374 -104.361 -138337000.0 101082000.0 -78897400.0 -10478900.0 40631400.0 -976452.0
48.0 1 17.0947 13.4185 2.4381 -302.597 81717400.0 110719000.0 95221700.0 -48037800.0 15267400.0 16695300.0
681.0 1 21.9536 13.1841 0.706161 -335.307 145481000.0 118093000.0 159750000.0 22948600.0 -10877200.0 -7474010.0
682.0 1 19.4305 14.7201 0.837779 -342.384 26748200.0 149736000.0 174827000.0 -1343340.0 9996540.0 24129000.0
683.0 2 20.3216 13.3616 0.511036 -111.532 -744819.0 -62309000.0 -109324000.0 -33492100.0 -14423800.0 357273.0
685.0 2 22.4749 15.8159 -2.04948 -116.037 -83828300.0 -75736600.0 -3594640.0 8116210.0 7425010.0 7862450.0
690.0 2 19.0318 15.2378 -0.674496 -114.338 -63831200.0 -86512200.0 24633100.0 10870800.0 54129100.0 8534930.0
692.0 1 18.0079 14.5736 -1.82019 -348.041 153322000.0 189764000.0 112074000.0 -22885900.0 2807100.0 31824500.0
693.0 1 22.7715 16.1017 -0.460919 -348.835 183165000.0 142144000.0 142979000.0 -13484800.0 852642.0 7386270.0
315.0 2 13.2166 19.8489 -0.642447 -118.495 -54196800.0 -1029820.0 -102940000.0 -47179700.0 5639400.0 33875200.0
317.0 1 14.3664 18.8971 -1.36717 -324.856 128778000.0 103787000.0 135127000.0 12692800.0 -60761800.0 -21431200.0
318.0 1 16.7809 20.0121 0.335158 -344.651 112341000.0 110260000.0 164625000.0 38882100.0 -32070300.0 -23554700.0
319.0 1 15.3489 22.6743 1.45566 -331.217 113423000.0 167349000.0 95844000.0 9425810.0 -41235400.0 -16424600.0
321.0 2 15.9874 21.2598 0.978457 -119.491 -86853500.0 -63180000.0 -89639700.0 14285600.0 10525900.0 30074900.0
326.0 2 14.1232 22.1828 2.44395 -119.313 -54868900.0 -67136700.0 -4708480.0 12824400.0 -29739700.0 -47319300.0
329.0 1 12.2276 21.097 -1.09335 -339.06 111958000.0 122204000.0 131962000.0 9127930.0 27731700.0 -39610100.0
355.0 1 14.2432 23.5459 -1.33579 -337.595 159846000.0 99873500.0 116157000.0 -12954600.0 -5680500.0 31890000.0
337.0 1 13.5038 21.2657 3.67533 -361.198 155381000.0 170513000.0 120853000.0 19525300.0 25980600.0 26850300.0
313.0 2 19.6436 18.1725 1.29756 -109.866 -77543400.0 -116129000.0 -44147300.0 16618500.0 -22118300.0 24775700.0
320.0 1 18.6332 18.5947 2.49423 -351.702 107887000.0 153148000.0 107630000.0 -1428170.0 -23535300.0 -5182710.0
1019.0 1 20.6977 21.5855 0.988833 -352.367 104862000.0 135825000.0 157040000.0 -19378600.0 -7308920.0 27573900.0
1020.0 1 20.6483 18.5283 0.0729296 -354.818 129147000.0 148553000.0 175658000.0 3168330.0 38881900.0 -32100100.0
1022.0 1 23.0313 19.2875 3.78002 -346.52 153217000.0 135372000.0 141332000.0 -1318870.0 29621600.0 62283000.0
1027.0 2 21.9198 21.8998 2.01664 -111.333 -46469000.0 -104162000.0 -79256400.0 25415200.0 32524600.0 -8168810.0
1034.0 2 19.3357 19.6022 3.54233 -113.262 -74879600.0 -72635700.0 -46540000.0 7115550.0 36347300.0 40388400.0
1042.0 1 23.5124 21.9038 2.2562 -334.157 141633000.0 66934400.0 147613000.0 -47732200.0 -3743420.0 53224800.0
1047.0 1 24.3631 23.4277 -0.195625 -339.18 117656000.0 172612000.0 93487800.0 9379610.0 -9109160.0 17607500.0
345.0 1 14.414 26.786 2.20783 -343.575 119608000.0 166648000.0 108726000.0 12924700.0 -61802900.0 25988300.0
346.0 2 14.0117 27.1388 3.77038 -116.598 -80542500.0 -82112600.0 28543300.0 -13706400.0 -16042100.0 6794860.0
350.0 1 17.147 27.113 3.31007 -332.981 144017000.0 112749000.0 160431000.0 -18496900.0 14335500.0 -15627700.0
581.0 2 13.7385 25.0529 -1.65167 -115.068 -87450700.0 8752750.0 -73476800.0 -14507100.0 -2637410.0 -30008900.0
619.0 1 13.3923 28.546 -0.221428 -275.19 53145500.0 51605500.0 94632700.0 2972390.0 19346900.0 -6371980.0
598.0 2 17.1425 29.6805 -2.02617 -116.916 -45176800.0 27545600.0 -83784200.0 -69091800.0 -13193800.0 10666400.0
584.0 1 13.9767 26.5029 -2.39863 -346.096 203470000.0 114730000.0 143054000.0 24611800.0 19899500.0 -50804400.0
341.0 1 16.6888 24.0864 3.87431 -346.918 115030000.0 80893200.0 116339000.0 -2683430.0 -51314900.0 -12099400.0
352.0 2 16.5153 28.4643 3.97311 -116.789 -92508800.0 -70755200.0 -108261000.0 -28555700.0 -44223400.0 8433830.0
1041.0 1 21.4156 23.9301 -1.05425 -328.377 110488000.0 92875000.0 155551000.0 13175900.0 -20191500.0 -10357200.0
1045.0 2 22.9026 24.1162 -0.424562 -119.962 -37748600.0 -73428700.0 -106591000.0 -30953800.0 18031700.0 -17882500.0
1053.0 1 22.2 25.8411 3.29556 -346.008 159292000.0 157360000.0 106693000.0 38448200.0 42880800.0 21448600.0
1055.0 1 19.6311 26.5288 -0.409123 -330.36 154401000.0 119439000.0 138543000.0 7031250.0 -6297390.0 -18576500.0
1056.0 2 20.7136 27.5331 0.384761 -125.504 -48985900.0 -34992200.0 1701180.0 37753700.0 53977900.0 40509600.0
1057.0 1 20.9025 28.3539 1.80778 -325.556 163687000.0 101488000.0 124786000.0 9997660.0 7084030.0 -15863200.0
1054.0 2 23.7443 25.7638 2.75225 -111.961 -50976400.0 -73460900.0 -81509800.0 -48147900.0 -16447800.0 5059750.0
1048.0 1 24.9059 24.6322 2.56037 -349.918 130675000.0 126172000.0 155320000.0 7721340.0 -13183000.0 -38200600.0
18.0 1 15.4358 36.136 3.70521 -296.494 42574700.0 85561500.0 64177400.0 69381300.0 100554000.0 6641520.0
353.0 2 13.4109 30.1259 -0.148251 -135.558 -59017400.0 50673300.0 -70379100.0 21706200.0 -1240570.0 24335300.0
362.0 1 17.1945 33.9949 2.64752 -318.115 68617100.0 64891100.0 95073600.0 15182600.0 11281900.0 36826200.0
363.0 1 14.0211 31.6457 -0.0123676 -324.604 169216000.0 104043000.0 125587000.0 -28221700.0 -85452.6 -472010.0
370.0 2 13.1758 35.1127 -2.12501 -107.825 -83546600.0 -38179400.0 -67125100.0 39972600.0 -11750600.0 -22500400.0
373.0 1 16.6366 31.2336 -1.87417 -342.723 99789700.0 158758000.0 197446000.0 10657600.0 7598280.0 -9332920.0
375.0 1 14.6276 32.186 3.05323 -324.509 107935000.0 98355600.0 120679000.0 -2003490.0 -30002800.0 54772600.0
376.0 2 15.8287 33.2652 3.0576 -120.888 -60164400.0 -45876800.0 -125731000.0 8995140.0 26613200.0 884806.0
618.0 1 12.6844 33.5489 -2.20585 -356.587 162975000.0 126763000.0 142956000.0 -2297440.0 10048500.0 26736100.0
1058.0 1 22.4499 31.0802 2.29429 -328.524 128477000.0 122079000.0 139366000.0 -42685500.0 -13938800.0 -16182700.0
1069.0 2 23.0706 30.8582 3.79796 -120.474 -68926800.0 -103769000.0 65455200.0 10370600.0 -1240090.0 -5930570.0
1073.0 1 18.6245 30.5414 1.55049 -351.582 156837000.0 167857000.0 102935000.0 35264600.0 24928600.0 -2246040.0
1076.0 1 21.3149 33.922 2.87996 -348.591 114715000.0 111761000.0 135057000.0 37656100.0 6007220.0 4313470.0
1077.0 1 19.4209 32.4214 -0.894881 -337.253 145938000.0 131973000.0 160970000.0 3897530.0 -10469400.0 10533800.0
1079.0 1 19.8085 35.2751 0.443457 -340.303 150608000.0 159604000.0 125758000.0 3451430.0 5357680.0 -6009300.0
1081.0 2 20.3099 34.6554 1.85802 -115.842 -73458000.0 -63687700.0 -45190300.0 -19694700.0 24188300.0 -19243500.0
1082.0 2 19.4447 31.4168 0.40986 -119.049 -70474300.0 -11747400.0 3232570.0 8928130.0 -37185000.0 -52824300.0
1090.0 2 23.1282 31.9392 -1.64299 -113.682 -74525000.0 -86120300.0 19516500.0 36331400.0 48731100.0 -6661120.0
1098.0 1 23.5207 32.7072 -0.235986 -357.669 168456000.0 145204000.0 112308000.0 -30051400.0 -9436020.0 4061270.0
60.0 1 14.0821 3.77775 5.93963 -339.538 164994000.0 127203000.0 144910000.0 3847580.0 22825300.0 9509580.0
61.0 2 14.6944 0.413506 10.0372 -127.8 -60185900.0 -84893000.0 20631300.0 -3484900.0 -29622200.0 38178800.0
62.0 1 15.5692 0.130419 8.68369 -305.077 80369100.0 152211000.0 54995500.0 -1504650.0 -47400900.0 -32049700.0
67.0 2 14.8039 -0.751641 7.55257 -134.462 -46908500.0 38298400.0 -7860690.0 52995300.0 35616900.0 56199500.0
68.0 2 14.2274 3.51973 7.58736 -121.516 -83805600.0 -58076800.0 115909000.0 22897200.0 -9353930.0 13864900.0
85.0 1 13.9505 3.85707 9.17717 -332.064 175678000.0 129649000.0 119253000.0 -2245860.0 -4810920.0 14864200.0
704.0 1 17.6466 2.33231 9.13692 -310.609 95583400.0 79485200.0 159147000.0 -9920450.0 29908100.0 42295200.0
640.0 1 19.3442 4.60549 5.15978 -330.94 86041600.0 88528500.0 143984000.0 -12616500.0 -23759500.0 -2420720.0
705.0 1 17.7292 -0.290643 10.5693 -311.966 40899800.0 106094000.0 52596100.0 53635500.0 -13314600.0 47603000.0
707.0 1 22.1524 2.48021 10.0705 -348.542 114337000.0 156793000.0 101418000.0 14707600.0 -7999700.0 -5500240.0
709.0 2 21.1569 2.74518 8.80491 -121.972 -65313000.0 -88830200.0 2585350.0 -2711220.0 22797600.0 -15572400.0
713.0 2 17.6579 1.34708 10.4656 -123.9 -74629100.0 -8789080.0 -59602000.0 11322500.0 -21605300.0 -56331400.0
718.0 2 21.4694 -0.717869 6.31088 -122.027 -55863700.0 -65392500.0 33408600.0 -23739200.0 19892300.0 -58010800.0
720.0 1 21.3349 0.586889 5.3456 -309.646 115361000.0 111582000.0 61134500.0 14400800.0 39729800.0 11004700.0
722.0 1 20.1905 2.62491 7.51395 -324.601 104464000.0 133984000.0 89932000.0 -6887120.0 36894300.0 -15635100.0
1164.0 1 22.3922 -1.08638 7.68301 -346.676 135974000.0 135303000.0 107816000.0 2225990.0 14045100.0 30861800.0
22.0 1 16.3195 5.1715 4.16996 -320.877 97373600.0 107526000.0 117652000.0 19889700.0 -33392600.0 26700700.0
35.0 1 15.7345 10.0128 4.25354 -319.046 171227000.0 78274400.0 34471300.0 2168150.0 4033390.0 -4300970.0
93.0 2 16.548 9.78134 8.36648 -113.28 -92011000.0 -77681600.0 -60485200.0 1042610.0 29894000.0 14458900.0
94.0 1 15.3598 9.44049 7.33072 -346.355 151562000.0 122733000.0 92948200.0 19535700.0 -17254700.0 -4892040.0
98.0 2 14.0768 10.1925 8.02221 -117.467 -58919800.0 -56927000.0 -50220500.0 -10550800.0 -35631000.0 24353700.0
733.0 1 17.6479 9.87293 9.55687 -348.836 85158700.0 166956000.0 128543000.0 18325000.0 41971300.0 -3594370.0
674.0 2 21.842 8.25295 5.33125 -121.01 -75025400.0 10382100.0 -94200100.0 26844100.0 6072610.0 -11919800.0
662.0 1 22.0768 9.80793 5.77651 -335.422 155279000.0 113202000.0 154140000.0 -12128600.0 16955400.0 13511800.0
734.0 1 21.4911 6.38174 8.42229 -337.155 155784000.0 149037000.0 110469000.0 5076480.0 122667.0 24485100.0
735.0 1 18.8451 5.3332 9.67839 -350.536 139220000.0 153981000.0 159767000.0 -15882200.0 38134800.0 -1935870.0
738.0 2 22.486 6.27799 9.70915 -118.844 -74642800.0 -79968400.0 47389300.0 -18270300.0 11732600.0 -11301400.0
675.0 1 21.701 6.6399 5.34352 -328.183 162566000.0 106790000.0 146284000.0 -10921900.0 4991450.0 -17462100.0
746.0 2 23.5813 10.6585 9.29007 -110.305 -66932600.0 -91384600.0 -30499400.0 -14441600.0 -9734150.0 23432900.0
744.0 1 24.4489 10.2084 7.95408 -373.907 154336000.0 194719000.0 160780000.0 5567760.0 -11356200.0 -24781200.0
96.0 1 12.95 11.3541 8.22693 -337.143 130849000.0 64569300.0 158647000.0 -27842000.0 -1223340.0 17120000.0
106.0 2 15.8136 16.2497 5.65344 -125.295 -54263400.0 8596810.0 -22668200.0 -20403100.0 -29017500.0 85715000.0
108.0 1 16.4839 14.8099 5.21266 -322.09 61669800.0 177958000.0 106572000.0 -20956900.0 -21807300.0 -52215800.0
113.0 2 14.245 14.2818 8.46531 -122.621 -70511900.0 -86614800.0 158485000.0 -29145300.0 20240700.0 -16457800.0
115.0 1 14.1327 13.6176 10.0078 -320.084 166968000.0 143151000.0 109057000.0 20085000.0 -24535400.0 -32813000.0
119.0 1 14.111 13.8383 6.82445 -305.134 147256000.0 104076000.0 115183000.0 -8290780.0 40277800.0 66596700.0
120.0 2 15.5292 12.9591 10.6048 -117.286 -102592000.0 -80659000.0 -8644570.0 -19216100.0 70902200.0 -42679300.0
393.0 1 15.6796 17.3686 6.86116 -325.305 162722000.0 119284000.0 128658000.0 -2919920.0 -9162450.0 -43862600.0
118.0 1 17.3733 16.0484 9.27789 -335.684 84168100.0 96519400.0 136083000.0 39299200.0 21248000.0 -12589300.0
780.0 2 17.3988 14.4569 8.94453 -112.398 -89803400.0 -34200400.0 -85673300.0 -23920800.0 -11456900.0 26640000.0
697.0 2 20.8713 15.2637 5.51445 -119.692 -12025500.0 -80209700.0 -85650400.0 -6367990.0 -6965820.0 -1799070.0
767.0 1 22.4086 14.7303 5.58333 -337.576 131741000.0 113388000.0 100315000.0 -6335540.0 9457260.0 -21288100.0
769.0 1 22.6581 11.5592 10.2603 -346.66 149654000.0 141389000.0 122714000.0 5688720.0 11296100.0 12986800.0
770.0 1 22.6415 14.3343 8.72167 -349.045 179662000.0 136775000.0 104407000.0 26120900.0 8233150.0 11691200.0
773.0 2 21.5401 15.4729 9.09918 -117.428 -55786200.0 -51930000.0 -88155400.0 -48866400.0 -5562010.0 -16144900.0
778.0 1 19.4187 15.3473 6.20521 -340.107 58697000.0 149792000.0 131875000.0 -19615600.0 15315100.0 -11422200.0
779.0 1 18.6826 13.5016 8.62296 -352.708 116463000.0 68504100.0 161382000.0 35106700.0 13501000.0 15026500.0
782.0 1 20.539 16.6806 9.45099 -335.523 101380000.0 142987000.0 77033800.0 19074600.0 -54447300.0 4024240.0
1101.0 1 24.3603 17.196 5.82258 -364.509 158369000.0 135681000.0 183043000.0 -18215500.0 -17134500.0 23099700.0
379.0 1 14.3299 18.5519 9.19129 -332.519 115995000.0 104399000.0 136064000.0 64596400.0 12894200.0 10638200.0
381.0 1 12.2936 20.9537 9.22826 -333.362 78433500.0 116649000.0 161388000.0 -12169700.0 -6354280.0 -14133300.0
382.0 1 14.4917 22.5163 7.90508 -332.228 153464000.0 137367000.0 123158000.0 -22653800.0 54305000.0 13743600.0
384.0 2 15.7594 19.3526 9.0283 -118.158 -5608590.0 -72453400.0 -120392000.0 6671850.0 4213360.0 -6838520.0
386.0 2 15.2602 21.5313 6.88085 -114.417 -92151400.0 8769070.0 -75298500.0 -31310200.0 -23421100.0 61727100.0
389.0 1 15.8048 20.4836 5.75264 -358.872 164244000.0 181855000.0 119291000.0 1746870.0 11281000.0 5004290.0
1115.0 1 17.2883 19.8552 9.14733 -347.083 120031000.0 82558000.0 143660000.0 -36528800.0 6681040.0 8108920.0
447.0 2 12.8999 21.7109 10.5621 -114.477 -30198800.0 -54149100.0 -64623500.0 24392600.0 51771300.0 37207400.0
1021.0 1 20.1434 20.2692 4.80457 -352.964 191031000.0 111802000.0 147121000.0 23506500.0 11852700.0 3706010.0
1043.0 1 19.1643 23.246 5.4456 -343.477 112846000.0 156383000.0 79483400.0 19010800.0 -49245600.0 36072800.0
1102.0 1 21.7122 21.9993 8.06581 -353.259 164239000.0 137709000.0 152454000.0 9671870.0 -1280700.0 8842170.0
1105.0 2 20.0893 22.1554 8.17199 -114.871 -50687100.0 -70419100.0 -92892000.0 1840070.0 -29178100.0 8031300.0
1113.0 1 18.5222 22.5844 8.26971 -339.509 130163000.0 114669000.0 62254500.0 -28629200.0 12295200.0 23422300.0
334.0 2 18.2006 23.6399 4.24401 -117.612 -58130200.0 -103100000.0 -90935200.0 9943320.0 17917800.0 8229170.0
1033.0 2 23.8838 18.4739 4.90084 -112.28 -63263400.0 -49725000.0 -68733000.0 -23853800.0 7902280.0 -52596000.0
404.0 1 13.1702 25.2341 8.68064 -349.431 199081000.0 77451600.0 186820000.0 -4017370.0 -11522700.0 2699880.0
409.0 2 13.4947 26.8294 8.54703 -117.679 -99513900.0 26523200.0 -95820200.0 11909300.0 -2709190.0 13105700.0
413.0 1 13.5905 28.2752 9.26078 -330.037 161150000.0 104844000.0 83698200.0 -31433400.0 -7583780.0 56076600.0
414.0 1 16.4739 27.5205 7.0684 -341.565 107880000.0 126359000.0 125222000.0 32178200.0 10372700.0 -13482800.0
415.0 1 13.7408 26.9487 5.37077 -347.685 194341000.0 96914800.0 130503000.0 -8603730.0 -13004700.0 -45073800.0
416.0 2 16.3686 29.0874 7.59997 -124.878 -97317500.0 2168170.0 -70935100.0 -10253500.0 14805100.0 16509300.0
366.0 1 15.7985 29.8137 4.42462 -331.568 55137800.0 57475300.0 131993000.0 29422000.0 16919500.0 24210200.0
439.0 1 13.2719 29.6276 6.47492 -294.093 71540500.0 48360500.0 115551000.0 -37501600.0 -31247100.0 -12766.4
1060.0 2 19.2452 29.5078 5.0161 -118.267 -79707200.0 -196548.0 -81390500.0 -7656850.0 -14110600.0 -24368000.0
1064.0 1 19.1912 27.9096 5.33628 -332.078 118121000.0 147789000.0 135770000.0 18379800.0 -21670600.0 -9057240.0
1134.0 1 23.0641 25.4547 9.01039 -344.653 173487000.0 68750600.0 152866000.0 -5071680.0 3247900.0 -32946400.0
1135.0 2 22.3768 25.5176 7.51181 -114.492 -41325100.0 -109837000.0 -3394440.0 14685100.0 45350900.0 31187600.0
1143.0 1 20.7886 28.2354 7.91779 -323.416 128378000.0 119935000.0 98882900.0 -5808760.0 -36198500.0 26944000.0
1147.0 2 22.2931 28.2819 8.53571 -116.489 -82616600.0 -123330000.0 -32917300.0 37674800.0 45115500.0 10618500.0
1155.0 1 21.8592 24.6112 6.25115 -338.103 159677000.0 189866000.0 122524000.0 -15221800.0 18357200.0 -22774000.0
1141.0 1 20.4443 26.5502 10.4603 -321.649 120191000.0 65838200.0 137782000.0 -48563600.0 21417000.0 6975130.0
1144.0 1 23.6121 28.2934 9.5374 -327.616 117938000.0 70506200.0 154372000.0 -37020900.0 16821500.0 30091000.0
424.0 1 14.3198 35.5375 6.42621 -315.56 180416000.0 111962000.0 40159200.0 -9439570.0 -22309500.0 18985100.0
429.0 1 13.9783 32.4122 6.21866 -313.78 191681000.0 17680600.0 164872000.0 15978700.0 35652200.0 12463900.0
432.0 1 15.5419 30.3793 8.07803 -301.239 78008800.0 119170000.0 75838600.0 -8161560.0 -62602600.0 -21160000.0
434.0 2 12.8347 31.1984 6.48921 -119.623 -99245800.0 87381300.0 -101627000.0 52247800.0 -7557220.0 -581258.0
1074.0 1 23.2603 31.4346 5.31672 -337.328 171699000.0 193294000.0 56614600.0 -4462530.0 -5307780.0 15778100.0
1075.0 1 18.5612 30.9345 4.66259 -334.677 100580000.0 48187100.0 141717000.0 -40966100.0 -5788250.0 -6257260.0
1163.0 1 21.3447 31.2522 7.75354 -326.695 136404000.0 69705300.0 154466000.0 32697000.0 46645700.0 12262600.0
1165.0 1 19.7268 32.8115 10.0243 -334.801 123691000.0 64973600.0 148905000.0 6343420.0 -881906.0 2135380.0
1167.0 1 20.6135 35.8628 10.3632 -335.995 96664500.0 143901000.0 145352000.0 39926900.0 1120110.0 -4238880.0
1169.0 2 19.945 34.3954 10.0725 -115.891 -62366200.0 -72212000.0 -100154000.0 19198400.0 18369300.0 14981000.0
1174.0 2 22.8201 31.1495 8.47767 -109.714 1556800.0 -87474500.0 -117957000.0 6869660.0 3381060.0 -7947920.0
1178.0 1 24.3848 30.7866 8.05878 -344.768 120201000.0 130658000.0 153019000.0 -7242860.0 -20862100.0 61306200.0
64.0 1 13.9428 1.42236 11.0567 -308.586 123654000.0 132890000.0 32234800.0 9753970.0 28967800.0 32693500.0
65.0 1 15.934 1.69474 13.4604 -285.202 16893300.0 8759870.0 134470000.0 -70461700.0 -6477590.0 -57348100.0
69.0 2 17.0188 4.36758 12.2693 -126.904 -16295200.0 -101484000.0 -60294400.0 2063720.0 35221000.0 3091310.0
72.0 2 15.6312 0.130526 13.6429 -133.952 -10714300.0 10202700.0 -122405000.0 -8168790.0 -888075.0 22438300.0
76.0 2 15.5389 2.56151 14.9563 -157.487 27512600.0 -70030700.0 79471900.0 29545200.0 -749626.0 105592000.0
127.0 1 16.8803 3.15126 15.9216 -295.585 59793100.0 148664000.0 -1349390.0 31900400.0 -10949700.0 -20917700.0
131.0 1 13.8813 2.74055 15.4409 -300.391 81539800.0 119187000.0 65859000.0 -29218400.0 7671720.0 -42803400.0
423.0 1 13.0145 0.223806 13.7114 -260.324 13100000.0 49537300.0 97334000.0 -27008500.0 23977600.0 7621120.0
421.0 2 13.1021 -1.20469 14.4144 -140.312 -48911600.0 63225400.0 -31670500.0 -33616000.0 27623600.0 -63809000.0
812.0 2 16.6812 3.96998 17.2857 -131.798 -42043000.0 -68188700.0 25493400.0 16424100.0 46460400.0 40181400.0
63.0 1 15.6599 4.95347 11.6071 -325.113 110637000.0 70731100.0 136065000.0 -17616400.0 -42229100.0 5853470.0
145.0 1 18.1572 0.666672 17.3195 -348.357 176854000.0 86655500.0 145557000.0 13832500.0 5801550.0 30658800.0
702.0 1 21.2491 4.12439 12.7466 -325.005 98600600.0 138056000.0 137604000.0 12241600.0 3659550.0 -3038090.0
703.0 1 18.0831 3.65762 13.2392 -306.341 -1724220.0 115379000.0 99584500.0 -42487300.0 35560300.0 40151400.0
729.0 2 21.9553 3.58186 14.1185 -125.068 -69885000.0 -56264500.0 23791700.0 4707480.0 17303800.0 -42858600.0
793.0 1 22.7754 3.05788 15.4375 -338.877 143315000.0 138436000.0 130138000.0 -22541500.0 -3816650.0 37652900.0
799.0 2 21.9191 2.08657 16.4547 -126.043 -45994400.0 -17908000.0 -5443420.0 18128100.0 -9493660.0 -70130900.0
808.0 2 18.4932 -0.735839 16.5433 -114.71 -101420000.0 -38925000.0 -27669300.0 -30916700.0 -40061200.0 27920700.0
717.0 1 21.0923 -0.89997 13.4661 -350.963 127313000.0 160751000.0 145636000.0 -11248300.0 4243490.0 -8911460.0
101.0 1 13.744 5.67461 14.1627 -333.415 145286000.0 97758200.0 150063000.0 23171200.0 7099030.0 19831900.0
84.0 1 16.7493 7.79247 11.7858 -336.135 60233700.0 25686800.0 153702000.0 23010100.0 -6295470.0 30799700.0
86.0 2 15.6176 8.60116 12.582 -116.639 -59420800.0 -91276100.0 -85707000.0 -767831.0 -1758690.0 -7070380.0
95.0 1 14.226 9.45072 12.5489 -338.572 110266000.0 96605800.0 113625000.0 -5316280.0 31468200.0 10235400.0
148.0 2 14.291 6.99666 15.0378 -123.487 -78101000.0 104749000.0 -9717920.0 1493550.0 6142750.0 65290100.0
162.0 1 13.9518 8.57744 15.5255 -329.089 173763000.0 150374000.0 114196000.0 -1402800.0 -11071900.0 3220980.0
170.0 1 15.2332 11.0425 17.0704 -326.363 182459000.0 152040000.0 143672000.0 -5239820.0 -33797400.0 4971360.0
736.0 1 22.8574 6.34921 11.315 -355.299 140238000.0 170896000.0 140935000.0 -33949200.0 -2714510.0 8590450.0
740.0 2 19.223 5.95761 11.1789 -112.481 -83872600.0 -36809000.0 44528700.0 33518100.0 57614700.0 70851000.0
741.0 1 19.5598 7.02016 12.4878 -331.096 138755000.0 98262400.0 245162000.0 16196300.0 6041060.0 46431700.0
743.0 2 20.3299 8.27802 11.8344 -110.661 -94261400.0 -15363200.0 -94210100.0 36833100.0 -13708200.0 -28228700.0
747.0 1 20.7595 9.83233 12.0559 -364.854 180239000.0 115534000.0 158939000.0 -57232500.0 25222900.0 22265100.0
823.0 1 20.7066 7.46165 15.5679 -339.771 133999000.0 158099000.0 150867000.0 24001700.0 -8093300.0 -11195200.0
824.0 1 23.4681 6.0143 16.2748 -355.291 173801000.0 120252000.0 166449000.0 16777000.0 -47690100.0 -35758100.0
826.0 2 22.0638 6.60973 15.7071 -110.387 -46745100.0 -90051500.0 -95496000.0 -22773000.0 21522700.0 5411900.0
836.0 1 20.7192 10.2152 16.9856 -345.37 212705000.0 70754100.0 108349000.0 -30524700.0 28298100.0 4051840.0
124.0 1 16.0801 11.7543 11.5448 -325.993 166994000.0 77423700.0 119751000.0 16670100.0 -2998740.0 -17903600.0
116.0 2 14.9068 16.2494 12.6975 -115.103 -65764700.0 -24292700.0 -83016200.0 30201800.0 -29809000.0 -19928300.0
173.0 2 15.4797 12.007 15.7184 -123.709 -53868000.0 -18139400.0 64277200.0 10740600.0 -71852000.0 -69575700.0
179.0 1 14.0935 14.8556 12.9535 -343.012 176347000.0 119463000.0 159854000.0 5952730.0 30156400.0 7681710.0
181.0 1 16.2051 12.8699 14.481 -328.4 158212000.0 129830000.0 155560000.0 5179450.0 -5788590.0 -3696030.0
114.0 1 15.6261 17.2798 11.6882 -338.363 157136000.0 114555000.0 123204000.0 -31482100.0 7580650.0 36841500.0
852.0 1 21.4414 13.1819 17.3967 -357.953 231436000.0 151075000.0 145282000.0 -11874700.0 -19987600.0 10299700.0
853.0 2 21.5282 11.6064 16.8895 -110.081 -125707000.0 -20447800.0 -57768500.0 17686700.0 -992782.0 35892100.0
787.0 1 22.2052 17.165 12.0282 -352.871 136889000.0 121545000.0 120500000.0 23442900.0 -17062800.0 -26586500.0
391.0 1 14.4907 22.0315 10.9395 -341.353 163526000.0 109209000.0 78726500.0 6804270.0 -41363700.0 -28873000.0
1185.0 2 17.4308 21.1421 13.0744 -114.362 -99917600.0 17125400.0 -65761900.0 22748600.0 -24885800.0 35294600.0
1100.0 1 21.4035 21.9894 11.1583 -328.362 121454000.0 147002000.0 65664100.0 22786400.0 1838680.0 46077700.0
1103.0 2 20.1373 22.9814 11.2627 -121.121 -69547700.0 -46961400.0 -87028100.0 -20921600.0 -6333290.0 -4534210.0
1125.0 2 21.5488 18.2815 13.0233 -114.977 -56965900.0 -37867300.0 -112550000.0 -37293900.0 -24716200.0 -15385100.0
1126.0 1 17.5668 19.6867 12.332 -344.066 166748000.0 153316000.0 152591000.0 -27473300.0 -2686850.0 -16994700.0
1127.0 1 20.6336 19.6003 12.9102 -331.754 106979000.0 58597000.0 201471000.0 667037.0 17641700.0 -1660030.0
1129.0 2 21.199 20.6946 13.9923 -108.738 -39438700.0 -42021800.0 -103870000.0 52932400.0 26759500.0 22849600.0
1190.0 1 17.4992 22.71 13.5326 -351.871 148716000.0 149060000.0 141091000.0 -9743370.0 23752600.0 778661.0
1157.0 1 22.2554 21.986 14.0615 -351.283 159316000.0 158617000.0 110355000.0 5025490.0 -17392100.0 -42078500.0
475.0 2 11.8123 28.4816 17.194 -124.829 -77698900.0 -33808500.0 25065900.0 23634300.0 -22168900.0 -49089400.0
399.0 2 14.9897 26.1895 11.9665 -124.05 -72065100.0 11170900.0 -66786500.0 18634900.0 -1104420.0 1962410.0
403.0 1 13.9814 24.9202 11.8175 -332.314 151960000.0 97664900.0 117024000.0 -17258800.0 9983980.0 -19250500.0
456.0 2 13.0131 24.8948 13.1034 -113.185 -77220700.0 -87681100.0 -14085700.0 15027700.0 -11919200.0 -15626600.0
460.0 1 12.4115 24.2767 14.5153 -372.043 148471000.0 187763000.0 122313000.0 2824690.0 24864100.0 1572520.0
468.0 1 12.1592 29.1123 15.7333 -335.718 151315000.0 133575000.0 117977000.0 -53497200.0 36328700.0 29616300.0
1132.0 1 15.5283 27.7292 11.7285 -337.622 136948000.0 134706000.0 113330000.0 -11556300.0 -6365230.0 -14933100.0
1122.0 1 18.866 23.9507 11.0219 -329.949 98662700.0 88564900.0 103639000.0 -6792980.0 18558300.0 5968600.0
1145.0 1 21.9747 28.6475 12.2385 -326.91 143380000.0 134551000.0 105112000.0 13765200.0 -2579680.0 -40582000.0
1146.0 2 20.8701 27.6008 11.6412 -125.597 -63744500.0 -34908600.0 -36173500.0 14733300.0 31067100.0 42322400.0
1198.0 1 20.0226 26.352 16.7327 -334.864 136915000.0 101781000.0 138055000.0 3328290.0 38649800.0 -33284500.0
1199.0 2 18.5346 27.0018 16.9412 -123.755 -18982300.0 -60300600.0 -65114700.0 -11635600.0 -34194700.0 17431200.0
74.0 1 16.3474 36.0462 13.2833 -318.734 66834000.0 88172300.0 120297000.0 4285630.0 5795010.0 47482700.0
430.0 1 14.0108 34.8352 14.7699 -308.314 127068000.0 30708800.0 127048000.0 -17567700.0 7309550.0 34056900.0
487.0 1 13.2896 31.8952 15.2087 -312.826 120083000.0 27042000.0 128656000.0 2888650.0 -20261900.0 1956100.0
489.0 2 14.1531 32.0597 16.5635 -123.423 -64805400.0 -94875200.0 -36503300.0 7181270.0 22147900.0 22569600.0
1161.0 2 21.1149 35.8292 11.9263 -117.258 -69789100.0 -80030100.0 65803100.0 -9093610.0 -18501600.0 13866900.0
1211.0 1 18.709 35.5339 15.3785 -335.797 126929000.0 79743400.0 122261000.0 -21290900.0 -19782600.0 27786300.0
1218.0 1 20.7466 31.5301 15.7979 -325.031 136989000.0 137022000.0 126216000.0 37703200.0 32514700.0 -6806770.0
1222.0 1 18.0595 32.7038 16.7014 -271.062 17155500.0 98500800.0 23939000.0 439629.0 5325030.0 22205000.0
1224.0 2 19.1809 31.6187 16.3724 -132.762 20183800.0 -64499800.0 -26646600.0 -61338200.0 -46905400.0 9560780.0
130.0 1 13.4614 1.89577 18.5337 -343.062 178520000.0 92036800.0 107082000.0 -6110220.0 -16167800.0 28962000.0
792.0 1 17.2862 4.25986 18.7873 -330.25 125272000.0 101462000.0 112421000.0 -27448500.0 -520993.0 -25473500.0
125.0 2 13.1747 2.01092 22.2875 -108.816 -85450100.0 -36500400.0 -85378200.0 -30872400.0 -15952300.0 44806800.0