ITEM: TIMESTEP
340000
ITEM: NUMBER OF ATOMS
3
ITEM: BOX BOUNDS pp pp pp
-1.2236181066565699e+00 3.6152833363932345e+01
-1.2236181066565699e+00 3.6152833363932345e+01
-2.4977844235678002e+00 3.7426999680843572e+01
ITEM: ATOMS id type x y z
1275.0 2 22.313 28.2735 29.3914
1278.0 1 22.5115 26.8554 30.1723
1281.0 1 21.4881 29.6138 28.9487
