ITEM: TIMESTEP
340000
ITEM: NUMBER OF ATOMS
9
ITEM: BOX BOUNDS pp pp pp
-1.2236181066565699e+00 3.6152833363932345e+01
-1.2236181066565699e+00 3.6152833363932345e+01
-2.4977844235678002e+00 3.7426999680843572e+01
ITEM: ATOMS id type x y z
379 1 14.3299 18.5519 9.19129
387 2 13.0344 19.5125 9.15929
895 1 22.1749 7.36671 28.0283
899 2 22.3873 8.84575 28.6168
1275 2 22.313 28.2735 29.3914
1278 1 22.5115 26.8554 30.1723
1281 1 21.4881 29.6138 28.9487
1288 1 21.8513 31.5286 26.4987
1297 2 22.1172 30.4531 27.6908
