ITEM: TIMESTEP
2499000
ITEM: NUMBER OF ATOMS
0
ITEM: BOX BOUNDS pp pp pp
-1.2291055084396412e+00 3.6158320766317473e+01
-1.2291055084396412e+00 3.6158320766317473e+01
-1.2291055084396412e+00 3.6158320766317473e+01
ITEM: ATOMS id type x y z
