ITEM: TIMESTEP
2499000
ITEM: NUMBER OF ATOMS
4500
ITEM: BOX BOUNDS pp pp pp
-1.2291055084396412e+00 3.6158320766317473e+01
-1.2291055084396412e+00 3.6158320766317473e+01
-1.2291055084396412e+00 3.6158320766317473e+01
ITEM: ATOMS id type x y z
608 1 0.6624103779 -0.0124550988 2.2210174044
723 1 1.7330741041 2.5737565551 3.5356228709
1156 1 -0.9049363334 3.5050773436 5.7498558046
1716 2 -0.5116258433 1.8207700512 -0.6533914862
1788 2 4.4802535831 3.6045278975 2.873790651
2339 2 3.3913821803 2.7024066889 0.0721900343
2749 2 -0.7632544383 -0.0557160898 1.4747868084
2788 2 0.9202751956 1.23565683 3.2929036995
3302 2 1.7457559191 3.5769359769 2.2276050689
3548 2 2.5126281131 2.9927200539 4.83808864
3821 2 -0.0257799776 4.7321700614 5.1851187307
3957 3 4.1639559568 3.3898492958 0.2209433872
4418 3 2.5525952718 -0.1314555379 0.5600099561
2653 2 1.9059012208 0.2301444328 1.2075639179
4153 3 2.691975597 2.6812827931 0.7458965008
2007 2 -0.1310966186 2.1188973883 6.1315814268
4456 3 1.7516818262 -0.6197689738 6.0081281453
685 1 4.7114948146 4.9567937184 2.0388396924
1909 2 -1.1591973772 4.276940759 0.0879750056
602 1 3.1001341296 3.8292637168 6.1435454032
1883 2 4.9487554218 1.4866872262 4.8144597866
3681 2 13.7808619055 17.4443810313 -1.1092522622
3566 2 4.9481198355 -1.1982851836 5.2626228654
3786 2 4.0019562388 0.3616995696 -0.7216758816
3493 2 11.1570123296 -1.1312435463 6.0962129216
511 1 5.371345501 2.9423591907 4.0845450634
749 1 5.2754093651 0.2561062616 5.9018730798
1829 2 7.0878022412 2.409737916 5.9200059815
2437 2 7.716733526 0.2103066644 3.7914650289
2777 2 5.9356339257 4.4265278516 4.6268496815
2841 2 7.3412142165 2.8352816019 -0.2786984388
3284 2 6.7550541474 2.384650953 3.4620070285
3734 2 5.6509660621 -0.4109863692 2.2393895857
182 1 7.2868902861 -0.3846581436 2.3423433414
623 1 7.8852386562 1.6585422698 4.5278851642
2976 2 7.9064373269 0.6142927603 1.2308675007
243 1 8.1439970335 1.4630396791 -0.0973208177
170 1 9.8336096017 -0.8577806943 5.1516943716
1849 2 9.1525228573 2.5705786239 4.0328382529
103 1 9.4517344297 4.0529526882 3.4751674026
1318 2 10.6095482466 -0.4544156036 3.7487685881
1819 2 9.7732289083 1.8391571874 0.0069751466
2266 2 9.4321808058 0.6551721722 5.7788310599
3771 2 9.8048212835 3.7588258057 1.9672390324
4169 3 10.6251388034 1.3819426128 0.2144641462
4409 3 9.8745862209 3.1990612595 1.1661236946
300 1 6.7649618154 4.356052553 -0.1471769507
2377 2 10.6998762685 4.6591150304 4.3132065625
2330 2 5.3459220511 4.4860112468 0.6323434097
1283 2 15.7202598687 -1.1698531675 3.7314208223
1580 2 17.3331908256 4.3504444391 -0.2881013765
4239 3 11.5877528677 1.9050151388 4.4830950275
2900 2 16.4954881525 1.6497861346 -0.8477275892
121 1 16.5169485352 -1.0953632072 2.309113397
67 1 11.5744803313 -0.2416026345 2.4114764314
267 1 14.6228267452 -0.9827448017 4.8579413634
303 1 11.6839507155 4.6748925243 -0.4525836197
395 1 14.9729599923 4.2154384428 2.8896429197
1140 1 13.1020557941 2.3571674559 1.2028680571
3076 2 13.049601235 -0.8223265718 2.6369039181
1474 2 13.9583026306 1.8174949126 -0.0622102857
1709 2 14.1413514697 2.9801578787 2.2963680233
2438 2 12.2906738691 3.6639365178 0.7070247937
2615 2 11.7471354659 1.7649730562 5.4452230553
2930 2 12.0245875563 1.2578574837 1.8830761971
3120 2 14.1003748505 0.5503826938 5.1161015418
3408 2 16.9266025648 0.5144159897 2.1237689699
3873 2 15.4489019288 4.1757703835 4.4615972574
2236 2 12.5582556789 -0.4833572103 -0.6337593487
2456 2 16.2322432841 4.6975119172 1.9831810309
3946 3 16.9816368563 -0.3750009714 5.8602608744
4457 3 13.3850038361 -0.6671201491 -0.1419389723
375 1 13.2734023687 1.4543321475 6.1066066261
987 1 1.6788885072 5.1790993551 1.7003601061
238 1 0.1047432663 6.100549863 4.256676774
1255 2 0.6871982415 5.7593148234 2.8110171622
2049 2 1.4539582733 5.6162331431 0.1602860268
2065 2 3.256114472 5.5913331172 1.884616559
2072 2 4.0491391708 7.329586727 4.0602806238
2530 2 3.0655507603 5.316797246 5.4853023762
2694 2 1.2735340315 7.0649959112 4.8104219446
274 1 2.8823523716 6.9102493539 5.124625875
4285 3 3.5000674285 7.5603419219 1.5791425927
2779 2 3.7331032565 9.3088770739 -0.7989594304
199 1 3.8124767624 10.6864541825 5.0483929128
520 1 3.9415381579 9.8198884163 0.7756681083
678 1 0.8246942404 10.5336891587 1.3388311715
1600 2 3.9882724408 8.4331887757 1.7471729026
1730 2 0.5518108935 10.689220852 2.9190668242
2642 2 0.1618525599 9.2590770221 0.6031475685
3071 2 2.2741785858 10.2650605009 4.7869052534
3093 2 -0.6195147393 10.2031095356 5.302590024
3300 2 2.4591379224 10.419433184 1.1185519334
3478 2 4.6902213691 9.6732923178 4.0526535888
336 1 0.7225555305 10.748068661 4.5289320121
216 1 -1.0232649205 8.6154150914 -0.3774610641
622 1 5.0135478315 8.3593859963 3.1564022062
4014 3 6.3768429432 9.9753079473 -0.9309957434
3058 2 7.9050166047 5.0679465367 0.7710544999
3863 2 5.0807330365 10.7695664311 1.3496510927
2720 2 8.2118552122 5.0975199909 3.836554265
38 1 6.8207812428 8.5867763229 5.9219501277
1852 2 6.6670441459 7.3247263615 4.8088142852
2524 2 5.8436608571 5.9009010067 2.7018832649
961 1 6.7325469168 5.7848130481 4.0851058748
2249 2 6.6689135173 10.2701078035 5.9045275871
838 1 9.1366332011 6.1033913074 0.8398959679
2931 2 10.3580430301 5.5600398414 -0.0587556875
2397 2 9.8757826185 6.5810156781 2.2412552183
2274 2 6.5742859413 9.2349621322 -0.2752587956
1011 1 7.4538251445 8.7659368696 0.948233513
1954 2 6.4113889251 8.5357798734 2.2430535535
4062 3 9.3022594995 10.2875303441 0.6167715466
159 1 10.5007134487 7.8539827679 3.0169097187
1135 1 8.9124581931 10.3625669086 3.033509736
2560 2 8.3605076191 7.477117511 0.5200465361
2612 2 8.7077620343 9.8693893686 1.380544323
3491 2 9.314672125 8.8546198447 3.5222381723
2974 2 7.4309440396 10.9614760901 3.1202859524
963 1 11.1448240286 5.8550640221 5.2729044076
1380 2 11.1196249033 7.1886735173 4.3968048477
3218 2 10.3190853319 11.1505069174 3.4906831845
1612 2 17.3355462334 5.0645442809 6.0215128439
2851 2 11.4321837869 10.658264063 5.8124423561
717 1 15.7681531617 5.2294976057 5.6573219245
2527 2 11.4598504824 9.0764020574 -0.6456335953
4282 3 16.8240114671 7.2032172261 2.1604834225
1964 2 13.1844202942 10.6687699298 4.0926955224
337 1 14.5719798455 7.0519850869 3.4569971134
2492 2 14.0217117056 5.5878560865 3.0306309042
3475 2 15.1568313547 7.8121088505 2.1624724336
4458 3 16.2031932539 7.5263941389 5.105857387
2344 2 15.6688521575 6.7245086201 4.8080291493
2141 2 16.244955009 8.6139569818 -0.1318854933
3687 2 13.717228506 8.1722993152 4.1776771423
97 1 15.3239531502 9.1139016459 1.1091751669
917 1 12.1397034418 9.5023570049 0.7647210699
1027 1 16.8674556565 10.4854219914 3.5578310021
1154 1 14.1110302669 9.6205012719 4.8222363713
3617 2 11.4783946458 8.6046101252 1.9936270778
2259 2 16.1229224496 10.1831820374 2.0882471762
2491 2 15.7461319676 9.7536752843 4.5407464388
2546 2 13.7893114639 9.4642218301 0.746808754
2598 2 11.6363565218 11.0318766138 1.0056007799
34 1 17.2623042654 7.8742841403 -1.1475814777
4276 3 2.714781927 13.0183453466 6.1768202126
4050 3 16.4062069785 17.1365703508 1.1439118246
29 1 1.7398150571 17.2904943848 4.2144289823
1507 2 0.5553701765 11.8770193848 0.4793465839
3866 2 0.7462217714 12.2322373218 5.2440413145
1895 2 -0.0436399511 16.7891289984 1.4266542358
434 1 4.2231028652 13.5236738002 3.5090404108
584 1 1.034187206 13.3236136822 -0.1218432306
2929 2 2.4568647668 13.3762925658 -0.8845209293
794 1 1.20776581 14.3784251397 2.8408523284
1046 1 -0.2065107962 13.515149467 5.3428562821
1530 2 1.4873302899 15.8089428438 3.5571954158
1764 2 2.6621778182 13.6687744015 3.0870859178
1937 2 4.0469707 15.7196616698 0.3373528776
2465 2 4.024949506 12.2193386597 4.5859104498
2638 2 -0.0133224871 13.8337651137 3.7279064042
2717 2 4.6999420999 15.1490921575 3.5069093275
3249 2 2.6749269306 17.1295789021 5.5440380229
3436 2 1.1127194949 14.2548970833 1.2049355818
4423 3 3.4370322278 14.9596126811 0.2357375917
4380 3 4.0922468732 16.6965951184 0.4674087787
3205 2 0.2912579198 14.9431622135 6.0838750709
3972 3 4.4420436335 -0.4943042487 -0.5992619704
3855 2 9.7464595111 16.5924711362 3.1909108006
3134 2 6.646705386 16.7374595753 1.9226021841
3906 3 5.4989113994 14.4260193333 -0.2572193624
369 1 5.9852844278 16.2147459686 3.3626686369
797 1 6.2819162679 11.6461146401 2.1359572709
860 1 8.1728601266 14.2102191089 4.5597392514
1500 2 5.4669451499 12.896724049 2.7282787879
2156 2 7.0662296963 15.3713604067 4.1717699289
2462 2 7.4931567169 12.8213509976 5.0615906743
3874 2 7.1519216773 12.1265430677 0.8780872238
1311 2 6.2787009492 13.9312715214 -0.6881393602
2989 2 9.1360723897 14.7062380932 5.7638013146
1180 1 7.3538511666 12.7623162515 -0.5507405686
85 1 10.0430539637 15.2199787177 2.4029894856
1798 2 9.8674078351 15.1053862561 0.8033497587
1752 2 9.033481292 14.1323784873 3.1752828564
2204 2 8.8377955029 13.3398398252 -0.7041449174
441 1 10.096405821 14.3500480831 -0.5814319069
679 1 15.2079399664 14.2847322494 1.2334173231
1369 2 15.7637414454 17.293672316 3.7093622408
470 1 16.3617533287 13.5806522378 4.0009093909
1674 2 12.1514430936 12.9909777506 4.5172671351
1972 2 11.5080428748 15.3936433127 5.3142175136
3323 2 14.7599264374 15.7618720741 1.7635971989
1645 2 12.3431658155 5.3353787969 6.1814562535
891 1 14.40108192 16.5913869009 3.1535981492
71 1 13.1004107473 13.3719182369 -0.8879901086
3996 3 11.5436357047 11.9993136561 0.8376564611
3182 2 11.5428505687 14.779106187 2.7711247784
1867 2 15.8218788933 14.2452885147 5.3612508959
198 1 11.7180106608 11.406049976 4.3726151829
3062 2 15.4245253268 13.5358247137 2.7127256186
1724 2 11.5325690265 13.4843796152 -0.4880568097
3784 2 14.0732689664 13.5200472198 0.3786061638
801 1 12.3405113083 14.5848037327 4.2130082601
2226 2 16.6601423778 14.3951747066 0.5738283488
3240 2 16.8508930266 12.0069780785 4.087050021
3308 2 13.7576069264 15.3703883336 4.0586729645
472 1 6.7910956263 11.9298852055 6.2087864621
3361 2 12.8852087217 5.5305785495 -1.1180506452
2239 2 0.591490169 -0.5982412937 -1.1144917361
4476 3 17.2159438568 16.4147313117 5.1412258922
479 1 4.8077674373 3.9591850231 12.4053784929
612 1 1.286253234 3.4461921472 8.7649647965
697 1 4.7295529415 0.173719329 8.8812023048
785 1 0.3718951208 3.5255656532 12.924091645
974 1 3.5757021918 1.189999305 11.5599366225
1302 2 0.6643732178 2.1073446736 12.2609508652
1390 2 2.3179480458 0.2244353728 11.0344937336
1779 2 0.1245399085 4.5104626236 9.1577944844
3140 2 4.667676751 3.5648598382 6.5938395653
2193 2 3.7230086514 2.7408035757 12.0682186827
2455 2 2.0993961068 3.7973722422 7.3983422039
2680 2 2.3578965108 3.479766056 9.9571376581
2809 2 4.583031618 1.0418254572 10.2658082494
2877 2 3.4270871724 -0.7955683908 9.08900162
3395 2 0.7688411643 1.9477751382 8.4279545361
1303 2 -0.5215634212 -0.2788068624 7.6600168004
4039 3 2.9130100611 3.4212547339 10.7722583258
4300 3 0.836422676 1.2884740471 11.7777931554
3718 2 -0.3977063554 4.3776624854 11.7349471649
1841 2 4.03810988 0.3362200386 12.9323542662
2817 2 4.6532452045 0.6719404328 7.3285772664
2165 2 1.7232225173 4.4335566877 13.1456869205
756 1 0.4057083091 0.9671851994 7.1875518945
1529 2 1.6439013537 0.2617966279 6.4602916786
1485 2 5.452476216 4.2100920409 10.9722810563
446 1 6.2983667354 3.5058624796 6.893686724
743 1 6.6586693625 3.8680718653 10.0009183343
1450 2 6.240004963 3.3324222091 8.5162636369
2641 2 6.281841493 -0.4264198988 8.9352271357
3175 2 6.5032498314 -0.5003684892 11.8259855479
4083 3 7.4116895151 -0.1861383876 11.594183505
909 1 7.5014193381 -0.6409975544 7.9164945446
1325 2 7.6582222039 2.730746358 10.6052113052
4171 3 6.0384119606 0.027669087 11.1234010333
188 1 10.3273105657 1.8706523553 6.4120245113
289 1 11.0455977993 4.1671712755 12.3290707558
624 1 10.947605355 3.2749203475 9.0914691901
967 1 8.9743717711 2.0699647248 11.2853259765
983 1 9.7949510029 -0.4885951887 9.8327496909
1246 2 10.7599204751 2.0105299332 7.9793428082
1366 2 8.9293946972 -0.0469487383 8.5238532844
1783 2 9.5050488996 4.5405221143 12.1913728649
1900 2 9.7632464655 4.3606885939 8.6226682521
2567 2 8.8106896188 2.1886660645 12.9230821845
2886 2 10.2979988235 2.6087885735 10.4922638904
3589 2 9.0479128385 0.4717831075 10.9742625899
2088 2 6.8519997437 -0.0854278774 6.5141669599
8 1 9.1124061489 4.6298780631 7.1189085799
1809 2 7.5066535778 4.64662763 6.9126047617
1719 2 9.6781900707 3.3428906884 6.3864141243
3662 2 6.0400196199 3.3360487894 13.2212842965
4080 3 8.9927663848 5.3162364346 12.4715542374
2074 2 11.2001948069 -0.5270631116 12.7447441612
2110 2 11.4093026821 -0.4046529392 10.2765758282
1 1 13.282898775 4.4101895463 7.1129639791
1461 2 16.3909155212 1.5002999881 9.9553430617
326 1 16.7389924598 0.705058215 8.5598573759
892 1 14.9380401361 4.6233352635 11.735134102
895 1 12.3484000552 -0.5533801209 11.5933235942
1016 1 14.9163928163 1.4523842626 12.2118611745
2368 2 13.039955279 0.6840464815 7.5222067471
2499 2 15.470848348 -0.3915897725 8.5523798907
2575 2 12.3358752674 3.9789629716 8.4261599396
3047 2 15.087215967 3.0572507517 11.5406073231
3822 2 11.8117409385 2.7754617198 12.8673375319
3908 3 12.5668547869 0.1650790948 8.2127898978
4204 3 16.0834787149 2.3769715756 10.2849506117
2327 2 16.2466000558 0.6543496488 12.5985593244
1942 2 13.6426032031 0.4419666351 11.691016939
1564 2 11.8427725023 4.6908943428 10.919976047
970 1 17.106062211 -0.7773681917 12.3994338921
3390 2 14.2362033701 2.0946105162 13.5324972328
2217 2 17.1674897523 3.2448982442 13.5735112394
3037 2 13.6690361135 2.9487898281 6.5196629116
3929 3 2.512441176 4.9837126653 13.3436907301
1335 2 3.3754177493 7.6016924154 6.5166719175
47 1 -0.3968726158 5.3808792947 10.4477728531
1751 2 4.4367346189 5.263295839 13.2152649208
1778 2 0.7797022116 6.4677691639 10.6895199514
2776 2 4.4632049167 6.2941793437 8.5850938887
2947 2 1.3233602545 7.5677820197 13.0604062012
112 1 4.3914958331 7.6682420341 7.8092674061
512 1 1.6259292179 7.6143293655 11.4524851594
1692 2 3.2113991102 7.6499969701 11.2159349134
1220 2 -0.8034571378 10.5704783862 9.9980395025
531 1 3.9692422408 10.5536540443 8.2728714919
1049 1 -0.2491436784 9.7959978509 11.2735863247
1185 1 4.4546805836 8.6258461833 11.6064839682
2476 2 1.1414106058 9.0652232169 10.9090589185
2775 2 0.0064778938 10.8871498867 12.4470654732
3357 2 4.0416616855 10.6612550571 6.6544445833
3409 2 3.9065435269 10.1768635623 11.7254133712
3858 2 3.8791011561 8.9619217581 8.6068159833
4098 3 2.0118459706 10.7416006362 9.5683458123
4308 3 4.380167443 5.5733497651 9.2311112273
1856 2 4.9515968662 7.8943238008 12.9503002308
519 1 13.4862489865 16.9762904544 13.2545964933
2992 2 16.2534793422 16.8774754867 9.396849688
1635 2 7.5239265687 5.2499111404 9.99168364
437 1 8.6225934772 6.403574953 10.0019277948
3598 2 5.7975995479 8.1076938426 7.0967004487
3765 2 8.9323483039 7.0961770247 11.3684382251
2228 2 9.0803277371 7.0383386763 8.6169853633
3708 2 9.8150654383 5.9888736207 6.4702741215
763 1 9.5438570481 7.4764071499 7.1439207681
3652 2 10.7035028488 8.6797214646 12.4825835281
872 1 9.2476738571 8.0421910717 12.6697449841
1901 2 5.2626228654 10.9884698119 9.1685246757
2819 2 5.7688486171 8.9844289887 10.7645191285
324 1 6.4179317247 10.3731849377 10.2488717453
2945 2 7.7626826729 10.2021374625 9.4694560698
1211 2 9.705146405 10.4320327467 7.6890668306
2690 2 10.9377724619 8.2672633779 7.0712769988
836 1 11.1653497256 9.8977664252 7.1976838871
3363 2 8.1159190764 9.1554764639 12.891377647
3704 2 10.8621003111 10.9838711585 11.3875058125
1934 2 8.3435337275 8.2837886203 6.4162866779
982 1 8.6601678406 11.2303290725 8.5720082895
4216 3 7.221275353 9.5178727868 12.9091366745
1741 2 14.7696471682 5.1506101362 6.9205308961
2535 2 14.0346477551 5.2118507405 12.9921741482
4136 3 16.9360615837 5.2170849801 12.8317073147
1826 2 14.2939295563 5.2766805376 10.3828308937
1452 2 14.1822907014 9.435358737 6.4620115002
4427 3 12.8217996467 7.9089796719 11.4157707068
825 1 11.6794268369 9.9715692047 12.3513910493
3455 2 12.7133761105 6.9129038611 11.5846870987
769 1 16.4800845328 7.1131883037 11.4517747983
646 1 12.7505392122 5.8641117793 10.259452387
3084 2 15.2553472229 8.098085274 11.6352722865
4015 3 12.0146051134 7.2230325621 8.2748904129
1605 2 17.165358669 6.6693621664 10.0340809814
2568 2 16.3597717951 5.5070618583 12.0629096682
1985 2 14.842776974 7.6464077772 8.3211012718
2443 2 12.1222809011 6.6419197955 9.0509038326
4278 3 15.070728112 6.7144514025 8.4284031852
2211 2 16.7028388186 9.3469748613 7.6467816515
143 1 15.0986939068 9.103993978 7.7896763947
696 1 14.8639382573 9.5849458295 12.2755319614
716 1 13.1926455279 11.0975663218 9.0425290492
1917 2 13.2490631542 9.6896680105 12.0666857982
2940 2 14.5502577508 10.2493203945 8.8782860855
3043 2 15.7351400643 10.7280663879 11.5640866268
1664 2 12.0554321829 10.0792076049 8.5221708503
2894 2 11.5786677231 5.3345188861 13.3165100712
185 1 12.8706650129 6.3007969181 13.2114140159
2053 2 17.3319944279 11.0388306751 9.4531177645
544 1 2.2228381721 -1.1806805662 10.0484003657
4385 3 1.1946241296 17.2557614658 7.9191490519
2810 2 2.6041899201 11.3280598048 8.8920820458
2928 2 -0.9803871506 15.3447779466 13.1722693806
1913 2 4.1489635989 15.4274415461 7.0022224225
402 1 3.4895989491 16.9357998717 6.923596665
812 1 3.9577643009 11.6972232518 12.3928910925
529 1 0.7795601394 12.256726086 12.7804865407
560 1 -0.4701258001 16.5664121001 12.1892043941
611 1 1.914294698 12.7825802366 8.3916887326
999 1 1.2534532449 14.5432289147 10.8650913052
1091 1 4.4943112554 13.9405062157 7.4416742309
1404 2 0.1941552962 15.7710319935 10.8739147378
1524 2 4.6306258116 13.9175129485 9.0463799541
1527 2 4.5699460188 12.8374649783 11.3354251277
1731 2 0.5207269873 13.259045597 11.4863581676
2091 2 2.9098321299 13.215190146 7.138125717
2602 2 0.4343059514 12.6032327527 7.9013900244
2757 2 2.2245280838 14.9768482846 12.0688168815
2953 2 1.9465189207 13.9584521803 9.5382863216
2995 2 4.6378415849 15.2328399923 11.7406674411
3850 2 2.3562701577 11.9514951379 12.6541170399
84 1 3.5694211042 15.1610935213 12.9694425931
771 1 -0.5725075282 16.0346133488 6.8818349099
3127 2 0.2230969029 17.2353853184 7.6151145014
2118 2 2.5798507056 17.2420028929 8.3065575629
3176 2 4.988685193 11.4851991574 13.6063747871
4019 3 -1.1223584244 15.4180199147 9.1159953418
1575 2 0.8182112607 17.3966746754 12.8485690439
1247 2 -1.1947481835 15.0845988471 8.1765240944
4210 3 6.9353737043 3.2501698713 13.6194977737
3807 2 6.7398748523 11.3604747033 11.4950320505
4110 3 6.358934366 17.295952949 12.1553687734
457 1 5.1659015936 14.2366894067 10.5477094436
630 1 7.4301589036 12.3004693747 12.6602859652
1289 2 5.4990983365 12.8815447539 6.7145635647
2246 2 7.9205697741 16.2451419461 12.295758559
52 1 7.2834506429 16.179788725 8.9351523609
2701 2 6.470498446 15.2517954174 10.0585697456
3200 2 7.7114245115 11.9627861406 7.5451626269
3425 2 9.3887366165 12.2113751379 9.6243147894
2857 2 6.8580938942 13.8372047569 12.8281555092
4353 3 7.9906711983 14.8787062906 7.0159436079
1371 2 8.8905491613 12.60080257 12.0915858241
1726 2 8.767731466 16.6619369742 9.3769969646
1624 2 10.4259759836 16.5782265268 7.4480674808
4322 3 8.3601337448 16.2880253241 11.4479238934
173 1 10.4480345651 15.2723211145 6.5060538884
1146 1 10.0999202391 12.402761373 11.0384941883
3382 2 7.4368886404 15.2229323244 7.6799442986
1949 2 10.5886486753 16.1311476834 12.2404625556
4024 3 10.4984328157 15.1698795665 12.1278890151
384 1 7.3227822154 15.3014085321 13.4156615257
1454 2 11.042419868 13.7152843598 11.0072382999
1643 2 11.152488451 14.1932452173 7.5868496071
628 1 12.7115815141 13.917550336 7.9972513854
3275 2 13.591980628 14.6743466186 6.8849006788
1682 2 15.4066167496 12.906108293 10.1048927668
503 1 13.9356084629 13.412446207 10.6385608894
3915 3 15.9633903017 13.7775344246 8.7271661085
1571 2 15.7717049672 14.301444429 7.9375436656
3686 2 13.5547801388 16.9989846221 11.5768357392
3921 3 11.5373920045 14.4922698527 10.6627879416
3310 2 13.227116735 14.3441782572 9.5105074638
1449 2 13.0452642936 12.3064139755 7.9392260998
1888 2 15.2660026394 16.6346067656 7.0310855156
3126 2 13.9900819429 13.6470523069 12.235415253
1109 1 15.194218781 15.0902817359 6.6058409291
1119 1 17.1767244466 15.9272740479 10.3273853405
268 1 16.5068913175 11.779512977 10.6461505369
1522 2 13.182999572 11.9255482641 10.4195079589
3046 2 16.3751006399 15.4745123158 11.6191209183
4109 3 16.2981573166 15.2575530811 12.5622561335
132 1 3.737627135 -0.5123623756 17.35375391
201 1 2.2877240504 2.160898423 15.8195234854
288 1 0.7144798465 0.1475593469 17.7903268866
866 1 3.6367558589 1.6382035099 19.7973587039
1033 1 3.1252958675 -0.2187850882 14.1670740189
1373 2 1.8343416869 3.70341764 15.7397761052
2057 2 0.6922193728 0.5348108307 19.3504667977
2251 2 3.8832511604 2.3561093918 16.2199802083
2751 2 3.7981573782 -0.4570925433 15.7035850765
3145 2 2.2575224874 1.1245638315 14.564390198
3222 2 1.3110485751 1.3484546951 16.922228236
3360 2 3.6824059064 0.730451755 18.4277451172
3854 2 2.1731278501 2.3835966276 19.8859295168
4094 3 4.4651864503 3.0653264358 15.9026731215
2400 2 -0.5384363666 -0.6511295469 17.2505272261
166 1 0.7919391162 1.6072280273 20.6202559562
3714 2 -0.5109154822 3.519845377 14.2750862934
3435 2 -0.281412766 4.6569839471 16.8764660262
3764 2 2.0242548574 -1.0529247396 17.3798129461
1755 2 -0.7742725128 1.8912528272 20.9961117526
1707 2 4.8377895406 2.8589104553 20.3332326847
3940 3 4.9364175711 3.5376417919 19.6368544829
2135 2 3.7325798325 0.6437764846 21.0958614059
2818 2 15.0850101088 13.9225228637 14.736297584
604 1 1.3391975683 5.0864159253 16.4110299565
3791 2 6.5156998444 4.3450606497 17.5390086072
4251 3 5.4712820914 1.7059570038 17.0546171124
768 1 7.712433972 3.8257866862 16.5708612038
1438 2 7.6914970133 2.7425607847 15.3072035832
2380 2 6.1710251615 1.5382557033 17.6995128282
3630 2 7.7429794993 1.9418716636 19.8232308029
786 1 7.3422610645 0.9560325301 18.5835385225
2916 2 8.8158490837 3.1602157236 17.5067432584
296 1 9.0500439218 2.1659270318 14.5077108597
804 1 9.0606619509 2.8165878888 20.4211679113
715 1 10.046680544 1.9392433276 17.8533246999
2786 2 8.7432053144 0.8026655688 17.7473687339
3019 2 9.5777674437 0.6530074402 14.6586438996
3262 2 9.1631408863 4.3418827185 19.9441043521
3505 2 10.1952207886 3.1731143857 15.0207037356
3244 2 10.1825090637 2.1130387786 19.4947448757
1717 2 7.0446197639 -0.4779210785 19.1487616329
530 1 10.2800154714 -0.7392479719 14.0656793189
4151 3 6.527065622 1.6829001781 14.9195333601
2591 2 6.1524809981 0.8148463923 14.6258177393
4445 3 6.4433551745 0.0096819963 15.1125272546
4495 3 8.2717872565 -0.614564644 16.7946249501
3964 3 5.6205700845 0.8083708901 13.7895731758
919 1 17.3956652149 12.1647530174 19.8625623753
2398 2 11.1961569649 3.2940253223 17.4254256062
572 1 11.2910088653 3.9688683665 15.9174411548
2893 2 11.2354137624 0.8142818422 17.6371132138
3967 3 11.8926847164 3.4672786556 18.0907348568
629 1 17.3111322441 0.5365456073 16.7039604414
208 1 12.9035285605 -0.662226135 15.3287387407
1193 1 16.8219177713 3.26602214 15.1962003146
59 1 16.3184960765 1.9686859258 19.2970027781
277 1 12.7926000668 0.5901629153 17.9522518298
566 1 14.4915594916 3.2565257337 17.2822317636
578 1 12.7680365277 2.2347273736 14.1019077349
1628 2 12.646938654 3.3252064358 15.2716855282
1700 2 15.2403922524 1.3355448168 20.2809276754
2407 2 13.6279847195 1.911127983 17.4573918557
2784 2 15.507076764 3.2099036132 18.5839871716
3072 2 13.5594161797 4.5134910051 17.6672474793
3169 2 12.5274110522 0.8138518867 14.7891260173
3273 2 15.4034762058 3.4477250317 15.9701948133
1663 2 16.6658252666 -0.6258219981 15.8544433416
3476 2 16.4169745573 1.1444277711 17.9033490763
943 1 13.7330807747 1.2881001728 20.8648071115
3808 2 12.9969223514 0.5875271018 19.5740062194
1399 2 13.2887312135 -0.5447922291 16.8903367614
2321 2 16.2057729863 4.3854016827 20.928440511
3124 2 13.1242639253 2.7975203014 21.0213108779
2123 2 17.3786539359 1.7981319646 15.6096304743
4332 3 15.7403369166 -0.9992722874 18.072863667
2549 2 12.6914670787 12.8825542144 14.4800441643
2597 2 2.203621035 5.2533881711 17.7198889755
845 1 -0.966467438 5.2368629286 18.3160314875
2616 2 0.0484041537 5.3462585379 19.5737818948
857 1 0.5529998136 7.5284504473 14.514403209
2055 2 1.1504209756 6.3646546422 15.5077497377
2376 2 0.7365421667 7.7667952898 19.2799541117
2512 2 4.169937945 7.0164296445 15.3176346751
3968 3 2.5456038231 5.4140045543 18.6461250741
3599 2 2.5040701313 6.0418142163 20.2908353433
74 1 4.0803950591 6.2793365355 20.7539160052
1030 1 0.9534976626 6.5070633489 20.3180533897
1138 1 4.5236977725 7.792330902 16.6986514268
1739 2 4.5762271064 10.342340311 20.03260039
2691 2 -0.3064361704 10.2135780149 19.8691799498
298 1 2.395545649 10.6300365562 16.6395045185
377 1 0.8816465068 9.4041776235 19.1001579788
1647 2 4.1786492154 7.9103630067 20.9361797083
853 1 3.5962278889 9.366154611 20.8450665504
1589 2 3.2682653856 7.9962793123 17.6797722672
2058 2 1.2294953821 9.9021033666 17.5851446912
2912 2 0.2575868037 8.9375077687 15.1910408497
3447 2 2.8582374816 9.6537013065 15.4508086875
3733 2 2.2517723013 9.5626255361 19.9461980479
4088 3 0.0502884799 9.4226096247 16.0090403492
4383 3 2.3497647455 7.9216913969 17.9210707163
4197 3 3.3551163768 9.424217284 14.6558024552
2401 2 -0.9511374716 6.9505903868 14.2083123501
1043 1 4.980347797 6.6277499609 13.9861188758
2871 2 5.0866028624 5.5720412052 19.6784666884
3187 2 8.2369047878 5.2015691982 15.8796050794
2298 2 6.5281124699 6.4581979828 14.5298068286
488 1 6.1824283266 5.6656593206 18.4496167616
1084 1 8.0372933189 6.6515657515 15.1712255138
1442 2 7.5847559113 6.1770819246 19.1016908632
4263 3 6.0394214211 9.693219816 16.9325471656
3534 2 5.5609371396 6.7581946912 17.4834135044
1540 2 7.4052962652 9.6849945823 18.1829696374
122 1 9.1523733076 5.9029199277 19.4708543103
2639 2 9.8262442787 6.6597162104 20.7325303973
2134 2 10.0642900218 6.2120765556 18.1579200618
3167 2 8.9878312445 6.996389984 13.8978097749
3672 2 8.2728714919 7.7995466752 16.3154303075
3755 2 5.4557289221 9.0844029666 16.4283029475
2963 2 7.2933209235 9.6848450326 20.7263240846
3025 2 8.7851913941 10.4440341105 16.2803609017
480 1 10.8302088365 9.4743164352 19.4470011323
346 1 8.5797474867 9.1204444455 17.2163551185
1813 2 9.7920347837 8.9686514948 18.3387630427
3383 2 10.4125165101 9.0363975112 20.9754365058
661 1 7.2526807911 10.7116906952 19.4612083543
3482 2 10.9223688423 11.084779822 19.2937126846
120 1 11.158283502 6.7805149847 17.0995567988
3688 2 11.2637160441 5.5340929675 16.0674021216
3494 2 11.2461439538 8.1721871529 16.2860811779
4076 3 11.3395751321 9.1196219221 16.0716269008
2073 2 12.7781685203 5.1351317418 20.1448748311
2067 2 15.3401045183 7.5543225463 15.556802041
140 1 16.5061061815 5.4784978647 19.7469230659
1009 1 13.4713687908 5.686222405 18.7850941375
1493 2 12.8869285433 7.5065414155 14.197956033
1846 2 16.7643037474 6.8991826757 20.6189100089
2911 2 12.5422912479 6.7985357241 18.0532352682
3861 2 15.0481087191 5.9268104931 19.1161224098
3934 3 14.7214921632 6.812294297 15.4662123071
4000 3 12.6390125197 8.1414173011 18.9133703971
4412 3 12.421006437 8.0261892533 14.8877914352
843 1 13.639873921 9.9947120215 20.1547077243
211 1 15.8206077208 9.0897119811 15.3357301894
2314 2 15.4484158922 10.0388291845 16.6093702529
2338 2 12.1924571002 10.7810817584 16.2943064117
3375 2 12.4424294323 8.9779983514 19.4182128141
3421 2 14.0329653209 10.7919988868 18.7868513466
1463 2 14.7946593564 8.9650623019 20.5584171532
4350 3 16.2428239257 7.220041568 17.02414636
3852 2 16.9894508284 7.3262966334 17.6611533289
1316 2 15.1513727905 9.5291637895 13.8877899447
4121 3 12.3157982195 10.8404903787 17.2674263428
1850 2 11.6839881029 10.6781541738 13.8179502324
203 1 15.2457386544 11.1717803629 17.7760448898
3778 2 17.4106575728 9.1347638298 15.1347727732
3228 2 3.6742928349 11.1213821123 17.505920735
3336 2 0.0669483171 13.1169733772 13.9583774055
3049 2 3.7350474026 16.4862534582 13.9227845757
3537 2 1.2614167667 17.0354747502 19.7391838686
3017 2 2.0033702411 14.5071500483 20.2817128113
1541 2 4.6610591766 16.7727159183 16.5345580129
476 1 -0.3704097955 13.1358914148 17.9061531332
409 1 2.4638562156 16.0665048234 20.2133685961
691 1 4.4624945556 11.5120807169 18.9021541692
818 1 1.6576860978 15.1939196816 16.3952150752
1273 2 0.5055663859 14.1955258503 16.9987229101
1598 2 1.409713993 15.2684328221 14.7204827027
2268 2 0.728025311 12.6407323413 19.0053060783
2588 2 3.3650240448 12.4961177764 19.5474985341
2866 2 1.5796548004 11.8491283647 15.9956556506
3350 2 3.0418097446 14.5670820926 16.8377326526
3875 2 -0.6994303629 15.1619534321 20.5054765576
4122 3 4.347191733 13.2984145569 14.5603897433
4155 3 3.8442934622 14.0607067912 17.1652838942
4277 3 -0.0479469826 15.8190374489 20.2385677214
4294 3 1.0694809364 14.5097671682 14.2167992959
4338 3 1.3995147031 16.1050138725 14.1951145886
4439 3 0.9249299302 12.3520266356 15.5040109951
1687 2 1.5536406292 16.8156740711 16.7005207982
2323 2 3.6553747972 16.3307965397 19.1555287571
798 1 1.9002557194 12.875151504 20.1522401541
1184 1 4.878429673 16.3329650105 18.1114474909
4131 3 4.8382008023 11.906069415 16.4733547961
1734 2 -1.1496744258 11.8237423023 17.2676132799
2313 2 3.9391453627 13.9746409359 13.9496661351
1179 1 6.8377925217 13.9703039944 21.1860024906
994 1 4.9715991392 16.9181156191 14.9434239255
4422 3 5.558693894 11.6082411773 14.405381474
4307 3 6.2745883323 13.00522236 16.2786784675
1879 2 10.2000437666 12.2388548962 15.1423624207
766 1 8.6842827306 11.8929090409 15.5149281236
1216 2 5.418977082 12.6209170053 16.1112201852
1904 2 6.1389467498 16.0282574863 14.2655151123
2478 2 7.7110880247 11.7520332187 14.1815429529
3553 2 5.6858859182 14.9344509432 18.1814741403
3757 2 6.0660038811 11.7028687532 18.821359941
1468 2 8.3864918803 14.9250293118 14.5661100196
1573 2 8.0076077024 16.1548513117 16.7968681957
2909 2 8.1666538138 13.2394545856 16.3964862477
4341 3 6.5179804774 14.5198617733 18.5308222514
4483 3 8.4371892303 14.0675113028 19.3330816444
128 1 8.6169479759 14.8077449556 16.130586872
468 1 10.0575976725 12.2385931843 20.0047841449